 Entering Gaussian System, Link 0=/software/sse/easybuild/prefix/software/Gaussian/09.E.01-avx-nsc1-bdist/g09/g09.orig
 Input=glu_esp.wrap
 Output=glu_esp.log
 Initial command:
 /software/sse/easybuild/prefix/software/Gaussian/09.E.01-avx-nsc1-bdist/g09/l1.exe "/scratch/local/Gau-69226.inp" -scrdir="/scratch/local/"
 Entering Link 1 = /software/sse/easybuild/prefix/software/Gaussian/09.E.01-avx-nsc1-bdist/g09/l1.exe PID=     69227.
  
 Copyright (c) 1988,1990,1992,1993,1995,1998,2003,2009,2015,
            Gaussian, Inc.  All Rights Reserved.
  
 This is part of the Gaussian(R) 09 program.  It is based on
 the Gaussian(R) 03 system (copyright 2003, Gaussian, Inc.),
 the Gaussian(R) 98 system (copyright 1998, Gaussian, Inc.),
 the Gaussian(R) 94 system (copyright 1995, Gaussian, Inc.),
 the Gaussian 92(TM) system (copyright 1992, Gaussian, Inc.),
 the Gaussian 90(TM) system (copyright 1990, Gaussian, Inc.),
 the Gaussian 88(TM) system (copyright 1988, Gaussian, Inc.),
 the Gaussian 86(TM) system (copyright 1986, Carnegie Mellon
 University), and the Gaussian 82(TM) system (copyright 1983,
 Carnegie Mellon University). Gaussian is a federally registered
 trademark of Gaussian, Inc.
  
 This software contains proprietary and confidential information,
 including trade secrets, belonging to Gaussian, Inc.
  
 This software is provided under written license and may be
 used, copied, transmitted, or stored only in accord with that
 written license.
  
 The following legend is applicable only to US Government
 contracts under FAR:
  
                    RESTRICTED RIGHTS LEGEND
  
 Use, reproduction and disclosure by the US Government is
 subject to restrictions as set forth in subparagraphs (a)
 and (c) of the Commercial Computer Software - Restricted
 Rights clause in FAR 52.227-19.
  
 Gaussian, Inc.
 340 Quinnipiac St., Bldg. 40, Wallingford CT 06492
  
  
 ---------------------------------------------------------------
 Warning -- This program may not be used in any manner that
 competes with the business of Gaussian, Inc. or will provide
 assistance to any competitor of Gaussian, Inc.  The licensee
 of this program is prohibited from giving any competitor of
 Gaussian, Inc. access to this program.  By using this program,
 the user acknowledges that Gaussian, Inc. is engaged in the
 business of creating and licensing software in the field of
 computational chemistry and represents and warrants to the
 licensee that it is not a competitor of Gaussian, Inc. and that
 it will not use this program in any manner prohibited above.
 ---------------------------------------------------------------
  

 Cite this work as:
 Gaussian 09, Revision E.01,
 M. J. Frisch, G. W. Trucks, H. B. Schlegel, G. E. Scuseria, 
 M. A. Robb, J. R. Cheeseman, G. Scalmani, V. Barone, B. Mennucci, 
 G. A. Petersson, H. Nakatsuji, M. Caricato, X. Li, H. P. Hratchian, 
 A. F. Izmaylov, J. Bloino, G. Zheng, J. L. Sonnenberg, M. Hada, 
 M. Ehara, K. Toyota, R. Fukuda, J. Hasegawa, M. Ishida, T. Nakajima, 
 Y. Honda, O. Kitao, H. Nakai, T. Vreven, J. A. Montgomery, Jr., 
 J. E. Peralta, F. Ogliaro, M. Bearpark, J. J. Heyd, E. Brothers, 
 K. N. Kudin, V. N. Staroverov, T. Keith, R. Kobayashi, J. Normand, 
 K. Raghavachari, A. Rendell, J. C. Burant, S. S. Iyengar, J. Tomasi, 
 M. Cossi, N. Rega, J. M. Millam, M. Klene, J. E. Knox, J. B. Cross, 
 V. Bakken, C. Adamo, J. Jaramillo, R. Gomperts, R. E. Stratmann, 
 O. Yazyev, A. J. Austin, R. Cammi, C. Pomelli, J. W. Ochterski, 
 R. L. Martin, K. Morokuma, V. G. Zakrzewski, G. A. Voth, 
 P. Salvador, J. J. Dannenberg, S. Dapprich, A. D. Daniels, 
 O. Farkas, J. B. Foresman, J. V. Ortiz, J. Cioslowski, 
 and D. J. Fox, Gaussian, Inc., Wallingford CT, 2013.
 
 ******************************************
 Gaussian 09:  ES64L-G09RevE.01 30-Nov-2015
                 3-Apr-2023 
 ******************************************
 %nproc=8
 Will use up to    8 processors via shared memory.
 %chk=glu_esp
 ----------------------------------------------------------------------
 #HF/6-31G* scrf=smd SCF=tight Test Pop=MK iop(6/33=2) iop(6/42=6) # io
 p(6/50=1)
 ----------------------------------------------------------------------
 1/38=1/1;
 2/12=2,17=6,18=5,40=1/2;
 3/5=1,6=6,7=1,11=9,16=1,25=1,30=1,70=32201,72=1/1,2,3;
 4//1;
 5/5=2,32=2,38=5/2;
 6/7=2,8=2,9=2,10=2,15=8,20=1,28=1,33=2,42=6,50=1/1,2;
 99/5=1,9=1/99;
 ------------
 RESP charges
 ------------
 Symbolic Z-matrix:
 Charge = -1 Multiplicity = 1
 N                     1.75913   1.69287  -0.46149 
 H                     1.55647   1.49604  -1.43955 
 C                     1.49679   0.4778    0.31183 
 H                     1.50427   0.7642    1.37319 
 C                     0.19164  -0.24548  -0.00263 
 H                     0.19367  -0.53103  -1.05927 
 H                     0.14958  -1.1704    0.58025 
 C                    -1.03839   0.60538   0.29721 
 H                    -1.04671   0.90699   1.34743 
 H                    -1.01182   1.51808  -0.30904 
 C                    -2.35114  -0.11363  -0.02906 
 O                    -2.42035  -0.70778  -1.13635 
 O                    -3.27442  -0.05081   0.82131 
 C                     2.69703  -0.42664   0.17193 
 O                     2.64491  -1.63213   0.0995 
 H                     1.0956    2.40791  -0.18126 
 H                     3.66837   0.09935   0.14739 
 
                          Input orientation:                          
 ---------------------------------------------------------------------
 Center     Atomic      Atomic             Coordinates (Angstroms)
 Number     Number       Type             X           Y           Z
 ---------------------------------------------------------------------
      1          7           0        1.759125    1.692871   -0.461486
      2          1           0        1.556470    1.496043   -1.439551
      3          6           0        1.496785    0.477802    0.311827
      4          1           0        1.504266    0.764195    1.373193
      5          6           0        0.191640   -0.245481   -0.002631
      6          1           0        0.193667   -0.531033   -1.059268
      7          1           0        0.149582   -1.170398    0.580254
      8          6           0       -1.038390    0.605375    0.297205
      9          1           0       -1.046708    0.906990    1.347431
     10          1           0       -1.011825    1.518078   -0.309037
     11          6           0       -2.351140   -0.113633   -0.029062
     12          8           0       -2.420346   -0.707783   -1.136351
     13          8           0       -3.274421   -0.050806    0.821309
     14          6           0        2.697033   -0.426642    0.171925
     15          8           0        2.644909   -1.632131    0.099501
     16          1           0        1.095598    2.407910   -0.181261
     17          1           0        3.668368    0.099347    0.147389
 ---------------------------------------------------------------------
                    Distance matrix (angstroms):
                    1          2          3          4          5
     1  N    0.000000
     2  H    1.018048   0.000000
     3  C    1.463977   2.026747   0.000000
     4  H    2.072062   2.906864   1.099352   0.000000
     5  C    2.534712   2.638258   1.524935   2.152980   0.000000
     6  H    2.784556   2.472020   2.143774   3.051582   1.094544
     7  H    3.445890   3.628892   2.145594   2.491299   1.094073
     8  C    3.095860   3.246985   2.538425   2.765515   1.525395
     9  H    3.429648   3.858858   2.779575   2.555097   2.164339
    10  H    2.780640   2.806187   2.785816   3.119127   2.156931
    11  C    4.510513   4.455328   3.908008   4.195361   2.546333
    12  O    4.866884   4.556736   4.341284   4.885398   2.884704
    13  O    5.479284   5.553534   4.827360   4.879001   3.567962
    14  C    2.402752   2.755804   1.509366   2.069742   2.517992
    15  O    3.486396   3.652239   2.411449   2.943762   2.819886
    16  H    1.014926   1.620863   2.032093   2.298942   2.808831
    17  H    2.560323   2.988185   2.210439   2.574482   3.497006
                    6          7          8          9         10
     6  H    0.000000
     7  H    1.760331   0.000000
     8  C    2.156248   2.155171   0.000000
     9  H    3.065720   2.516985   1.092710   0.000000
    10  H    2.492973   3.060655   1.096021   1.765936   0.000000
    11  C    2.776975   2.782378   1.531906   2.153589   2.129467
    12  O    2.621115   3.124944   2.385219   3.265509   2.760949
    13  O    3.974270   3.610456   2.388534   2.481307   2.976310
    14  C    2.791698   2.685035   3.877388   4.144392   4.215316
    15  O    2.926389   2.582824   4.314187   4.651075   4.843803
    16  H    3.197149   3.778775   2.834072   3.029709   2.291148
    17  H    3.731883   3.765831   4.736252   4.931970   4.911754
                   11         12         13         14         15
    11  C    0.000000
    12  O    1.258528   0.000000
    13  O    1.256792   2.234613   0.000000
    14  C    5.061859   5.289442   6.018406   0.000000
    15  O    5.223301   5.295145   6.169284   1.208787   0.000000
    16  H    4.273330   4.793913   5.113462   3.274755   4.336026
    17  H    6.025859   6.274702   6.977036   1.104879   2.011909
                   16         17
    16  H    0.000000
    17  H    3.472264   0.000000
 Stoichiometry    C5H8NO3(1-)
 Framework group  C1[X(C5H8NO3)]
 Deg. of freedom    45
 Full point group                 C1      NOp   1
 Largest Abelian subgroup         C1      NOp   1
 Largest concise Abelian subgroup C1      NOp   1
                         Standard orientation:                         
 ---------------------------------------------------------------------
 Center     Atomic      Atomic             Coordinates (Angstroms)
 Number     Number       Type             X           Y           Z
 ---------------------------------------------------------------------
      1          7           0       -1.759125    1.692871    0.461486
      2          1           0       -1.556470    1.496043    1.439551
      3          6           0       -1.496785    0.477802   -0.311827
      4          1           0       -1.504266    0.764195   -1.373193
      5          6           0       -0.191640   -0.245481    0.002631
      6          1           0       -0.193667   -0.531033    1.059268
      7          1           0       -0.149582   -1.170398   -0.580254
      8          6           0        1.038390    0.605375   -0.297205
      9          1           0        1.046708    0.906990   -1.347431
     10          1           0        1.011825    1.518078    0.309037
     11          6           0        2.351140   -0.113633    0.029062
     12          8           0        2.420346   -0.707783    1.136351
     13          8           0        3.274421   -0.050806   -0.821309
     14          6           0       -2.697033   -0.426642   -0.171925
     15          8           0       -2.644909   -1.632131   -0.099501
     16          1           0       -1.095598    2.407910    0.181261
     17          1           0       -3.668368    0.099347   -0.147389
 ---------------------------------------------------------------------
 Rotational constants (GHZ):      3.1812397      0.7428230      0.6738316
 Standard basis: 6-31G(d) (6D, 7F)
 There are   151 symmetry adapted cartesian basis functions of A   symmetry.
 There are   151 symmetry adapted basis functions of A   symmetry.
   151 basis functions,   284 primitive gaussians,   151 cartesian basis functions
    35 alpha electrons       35 beta electrons
       nuclear repulsion energy       433.4761343287 Hartrees.
 NAtoms=   17 NActive=   17 NUniq=   17 SFac= 1.00D+00 NAtFMM=   60 NAOKFM=F Big=F
 Integral buffers will be    131072 words long.
 Raffenetti 1 integral format.
 Two-electron integral symmetry is turned on.
 ------------------------------------------------------------------------------
 Polarizable Continuum Model (PCM)
 =================================
 Model                : PCM (using non-symmetric T matrix).
 Atomic radii         : SMD-Coulomb.
 Polarization charges : Total charges.
 Charge compensation  : None.
 Solution method      : On-the-fly selection.
 Cavity type          : VdW (van der Waals Surface) (Alpha=1.000).
 Cavity algorithm     : GePol (No added spheres)
                        Default sphere list used, NSphG=   17.
                        Lebedev-Laikov grids with approx.  5.0 points / Ang**2.
                        Smoothing algorithm: York/Karplus (Gamma=1.0000).
                        Polarization charges: spherical gaussians, with
                                              point-specific exponents (IZeta= 3).
                        Self-potential: point-specific (ISelfS= 7).
                        Self-field    : sphere-specific E.n sum rule (ISelfD= 2).
 Solvent              : Water, Eps=  78.355300 Eps(inf)=   1.777849
 ------------------------------------------------------------------------------
 Spheres list:
 ISph  on   Nord     Re0    Alpha      Xe            Ye            Ze
    1   N      1    1.8900  1.000     -1.759125      1.692871      0.461486
    2   H      2    1.2000  1.000     -1.556470      1.496043      1.439551
    3   C      3    1.8500  1.000     -1.496785      0.477802     -0.311827
    4   H      4    1.2000  1.000     -1.504266      0.764195     -1.373193
    5   C      5    1.8500  1.000     -0.191640     -0.245481      0.002631
    6   H      6    1.2000  1.000     -0.193667     -0.531033      1.059268
    7   H      7    1.2000  1.000     -0.149582     -1.170398     -0.580254
    8   C      8    1.8500  1.000      1.038390      0.605375     -0.297205
    9   H      9    1.2000  1.000      1.046708      0.906990     -1.347431
   10   H     10    1.2000  1.000      1.011825      1.518078      0.309037
   11   C     11    1.8500  1.000      2.351140     -0.113633      0.029062
   12   O     12    1.5200  1.000      2.420346     -0.707783      1.136351
   13   O     13    1.5200  1.000      3.274421     -0.050806     -0.821309
   14   C     14    1.8500  1.000     -2.697033     -0.426642     -0.171925
   15   O     15    1.5200  1.000     -2.644909     -1.632131     -0.099501
   16   H     16    1.2000  1.000     -1.095598      2.407910      0.181261
   17   H     17    1.2000  1.000     -3.668368      0.099347     -0.147389
 ------------------------------------------------------------------------------
 ------------------------------------------------------------------------------
 Atomic radii for non-electrostatic terms: SMD-CDS.
 ------------------------------------------------------------------------------
 Nuclear repulsion after PCM non-electrostatic terms =      433.4839246414 Hartrees.
 One-electron integrals computed using PRISM.
 NBasis=   151 RedAO= T EigKep=  2.29D-03  NBF=   151
 NBsUse=   151 1.00D-06 EigRej= -1.00D+00 NBFU=   151
 ExpMin= 1.61D-01 ExpMax= 5.48D+03 ExpMxC= 8.25D+02 IAcc=1 IRadAn=         1 AccDes= 0.00D+00
 Harris functional with IExCor=  205 and IRadAn=       1 diagonalized for initial guess.
 HarFok:  IExCor=  205 AccDes= 0.00D+00 IRadAn=         1 IDoV= 1 UseB2=F ITyADJ=14
 ICtDFT=  3500011 ScaDFX=  1.000000  1.000000  1.000000  1.000000
 FoFCou: FMM=F IPFlag=           0 FMFlag=      100000 FMFlg1=           0
         NFxFlg=           0 DoJE=T BraDBF=F KetDBF=T FulRan=T
         wScrn=  0.000000 ICntrl=     500 IOpCl=  0 I1Cent=   200000004 NGrid=           0
         NMat0=    1 NMatS0=      1 NMatT0=    0 NMatD0=    1 NMtDS0=    0 NMtDT0=    0
 Petite list used in FoFCou.
 Keep R1 ints in memory in canonical form, NReq=70874130.
 Requested convergence on RMS density matrix=1.00D-08 within 128 cycles.
 Requested convergence on MAX density matrix=1.00D-06.
 Requested convergence on             energy=1.00D-06.
 No special actions if energy rises.
 Inv3:  Mode=1 IEnd=     5156163.
 Iteration    1 A*A^-1 deviation from unit magnitude is 3.33D-15 for   1275.
 Iteration    1 A*A^-1 deviation from orthogonality  is 3.95D-15 for   1307    824.
 Iteration    1 A^-1*A deviation from unit magnitude is 3.77D-15 for   1307.
 Iteration    1 A^-1*A deviation from orthogonality  is 1.32D-10 for    760    758.
 Iteration    2 A*A^-1 deviation from unit magnitude is 2.00D-15 for     13.
 Iteration    2 A*A^-1 deviation from orthogonality  is 2.89D-15 for    997     11.
 Iteration    2 A^-1*A deviation from unit magnitude is 7.77D-16 for    243.
 Iteration    2 A^-1*A deviation from orthogonality  is 7.74D-16 for   1303    169.
 Error on total polarization charges =  0.03511
 SCF Done:  E(RHF) =  -473.175730297     A.U. after   14 cycles
            NFock= 14  Conv=0.66D-08     -V/T= 2.0022
 SMD-CDS (non-electrostatic) energy       (kcal/mol) =       4.89
 (included in total energy above)

 **********************************************************************

            Population analysis using the SCF density.

 **********************************************************************

 Orbital symmetries:
 BldTbl:  Degeneracy threshold= 1.00D-02
       Occupied  (A) (A) (A) (A) (A) (A) (A) (A) (A) (A) (A) (A)
                 (A) (A) (A) (A) (A) (A) (A) (A) (A) (A) (A) (A)
                 (A) (A) (A) (A) (A) (A) (A) (A) (A) (A) (A)
       Virtual   (A) (A) (A) (A) (A) (A) (A) (A) (A) (A) (A) (A)
                 (A) (A) (A) (A) (A) (A) (A) (A) (A) (A) (A) (A)
                 (A) (A) (A) (A) (A) (A) (A) (A) (A) (A) (A) (A)
                 (A) (A) (A) (A) (A) (A) (A) (A) (A) (A) (A) (A)
                 (A) (A) (A) (A) (A) (A) (A) (A) (A) (A) (A) (A)
                 (A) (A) (A) (A) (A) (A) (A) (A) (A) (A) (A) (A)
                 (A) (A) (A) (A) (A) (A) (A) (A) (A) (A) (A) (A)
                 (A) (A) (A) (A) (A) (A) (A) (A) (A) (A) (A) (A)
                 (A) (A) (A) (A) (A) (A) (A) (A) (A) (A) (A) (A)
                 (A) (A) (A) (A) (A) (A) (A) (A)
 The electronic state is 1-A.
 Alpha  occ. eigenvalues --  -20.57016 -20.48842 -20.48755 -15.54510 -11.33220
 Alpha  occ. eigenvalues --  -11.32656 -11.25640 -11.21311 -11.20702  -1.40073
 Alpha  occ. eigenvalues --   -1.36368  -1.25750  -1.18972  -1.03863  -0.95423
 Alpha  occ. eigenvalues --   -0.85605  -0.76112  -0.70750  -0.67480  -0.66574
 Alpha  occ. eigenvalues --   -0.63600  -0.62012  -0.59946  -0.59034  -0.57284
 Alpha  occ. eigenvalues --   -0.54478  -0.53896  -0.50461  -0.48239  -0.46859
 Alpha  occ. eigenvalues --   -0.42585  -0.40576  -0.40031  -0.39365  -0.38121
 Alpha virt. eigenvalues --    0.14997   0.23228   0.26260   0.27784   0.29473
 Alpha virt. eigenvalues --    0.30320   0.31465   0.33500   0.35076   0.37482
 Alpha virt. eigenvalues --    0.41368   0.43175   0.44890   0.47001   0.50336
 Alpha virt. eigenvalues --    0.51364   0.57263   0.61818   0.74020   0.76726
 Alpha virt. eigenvalues --    0.78727   0.80475   0.82564   0.86760   0.87408
 Alpha virt. eigenvalues --    0.89006   0.91344   0.93592   0.95179   0.97329
 Alpha virt. eigenvalues --    0.98288   0.99847   1.01915   1.06814   1.08308
 Alpha virt. eigenvalues --    1.11011   1.11856   1.12282   1.13990   1.15119
 Alpha virt. eigenvalues --    1.15944   1.17954   1.21355   1.22249   1.22825
 Alpha virt. eigenvalues --    1.24570   1.27890   1.28769   1.29887   1.34334
 Alpha virt. eigenvalues --    1.35763   1.37986   1.39405   1.41288   1.42362
 Alpha virt. eigenvalues --    1.46020   1.57478   1.64457   1.71974   1.73625
 Alpha virt. eigenvalues --    1.78562   1.79049   1.82273   1.87395   1.89986
 Alpha virt. eigenvalues --    1.95908   1.99245   2.02353   2.06403   2.08941
 Alpha virt. eigenvalues --    2.09955   2.10811   2.12351   2.16956   2.18184
 Alpha virt. eigenvalues --    2.21043   2.26423   2.26751   2.28692   2.30631
 Alpha virt. eigenvalues --    2.32862   2.35134   2.39093   2.41035   2.44014
 Alpha virt. eigenvalues --    2.45176   2.50410   2.52967   2.57367   2.72303
 Alpha virt. eigenvalues --    2.74426   2.75273   2.79933   2.81913   2.87296
 Alpha virt. eigenvalues --    2.91093   2.97454   3.00098   3.02551   3.08442
 Alpha virt. eigenvalues --    3.13115   3.21821   3.28640   3.28819   3.35439
 Alpha virt. eigenvalues --    3.37658   3.52434   4.20872   4.28798   4.31651
 Alpha virt. eigenvalues --    4.56298   4.61277   4.70005   4.78398   4.92661
 Alpha virt. eigenvalues --    5.05258
          Condensed to atoms (all electrons):
               1          2          3          4          5          6
     1  N    7.130019   0.326837   0.257683  -0.037383  -0.070548  -0.001250
     2  H    0.326837   0.360445  -0.038649   0.004482   0.000271   0.003303
     3  C    0.257683  -0.038649   5.155171   0.395924   0.318679  -0.040599
     4  H   -0.037383   0.004482   0.395924   0.486222  -0.035637   0.003893
     5  C   -0.070548   0.000271   0.318679  -0.035637   5.182907   0.391358
     6  H   -0.001250   0.003303  -0.040599   0.003893   0.391358   0.526674
     7  H    0.004105   0.000051  -0.037813  -0.000551   0.391467  -0.023356
     8  C   -0.001705  -0.000584  -0.050181  -0.003790   0.290792  -0.040428
     9  H    0.000340   0.000031  -0.004138   0.002090  -0.038374   0.003929
    10  H    0.005005   0.000668  -0.006180   0.000298  -0.034656  -0.001597
    11  C    0.000067  -0.000005   0.002906  -0.000110  -0.034856  -0.002367
    12  O    0.000003  -0.000009   0.000221  -0.000005   0.006334   0.007657
    13  O   -0.000000   0.000000  -0.000075  -0.000004   0.001554   0.000174
    14  C   -0.057483  -0.003692   0.337451  -0.035588  -0.055520  -0.003556
    15  O    0.001494   0.000136  -0.076180   0.000578   0.006859   0.001268
    16  H    0.333250  -0.023439  -0.033054  -0.005624  -0.001339  -0.000092
    17  H    0.011409   0.000212  -0.085539   0.001276   0.005315  -0.000064
               7          8          9         10         11         12
     1  N    0.004105  -0.001705   0.000340   0.005005   0.000067   0.000003
     2  H    0.000051  -0.000584   0.000031   0.000668  -0.000005  -0.000009
     3  C   -0.037813  -0.050181  -0.004138  -0.006180   0.002906   0.000221
     4  H   -0.000551  -0.003790   0.002090   0.000298  -0.000110  -0.000005
     5  C    0.391467   0.290792  -0.038374  -0.034656  -0.034856   0.006334
     6  H   -0.023356  -0.040428   0.003929  -0.001597  -0.002367   0.007657
     7  H    0.523735  -0.040396  -0.001297   0.004029  -0.002217   0.000583
     8  C   -0.040396   5.395050   0.378087   0.373446   0.361672  -0.128596
     9  H   -0.001297   0.378087   0.531377  -0.022165  -0.035065   0.003598
    10  H    0.004029   0.373446  -0.022165   0.513773  -0.023840   0.002135
    11  C   -0.002217   0.361672  -0.035065  -0.023840   3.982694   0.473947
    12  O    0.000583  -0.128596   0.003598   0.002135   0.473947   8.572565
    13  O    0.000317  -0.109838   0.007663   0.001161   0.507720  -0.092362
    14  C   -0.003280   0.003873  -0.000071  -0.000055  -0.000031  -0.000003
    15  O    0.004421   0.000317  -0.000002  -0.000006  -0.000002   0.000000
    16  H   -0.000101   0.001258   0.000139   0.000892   0.000033   0.000001
    17  H    0.000106  -0.000051  -0.000004  -0.000006   0.000000  -0.000000
              13         14         15         16         17
     1  N   -0.000000  -0.057483   0.001494   0.333250   0.011409
     2  H    0.000000  -0.003692   0.000136  -0.023439   0.000212
     3  C   -0.000075   0.337451  -0.076180  -0.033054  -0.085539
     4  H   -0.000004  -0.035588   0.000578  -0.005624   0.001276
     5  C    0.001554  -0.055520   0.006859  -0.001339   0.005315
     6  H    0.000174  -0.003556   0.001268  -0.000092  -0.000064
     7  H    0.000317  -0.003280   0.004421  -0.000101   0.000106
     8  C   -0.109838   0.003873   0.000317   0.001258  -0.000051
     9  H    0.007663  -0.000071  -0.000002   0.000139  -0.000004
    10  H    0.001161  -0.000055  -0.000006   0.000892  -0.000006
    11  C    0.507720  -0.000031  -0.000002   0.000033   0.000000
    12  O   -0.092362  -0.000003   0.000000   0.000001  -0.000000
    13  O    8.534158   0.000000   0.000000   0.000001  -0.000000
    14  C    0.000000   4.516687   0.520039   0.004336   0.393658
    15  O    0.000000   0.520039   8.184526  -0.000065  -0.042928
    16  H    0.000001   0.004336  -0.000065   0.340460  -0.000383
    17  H   -0.000000   0.393658  -0.042928  -0.000383   0.515493
 Mulliken charges:
               1
     1  N   -0.901841
     2  H    0.369942
     3  C   -0.095626
     4  H    0.223928
     5  C   -0.324607
     6  H    0.175050
     7  H    0.180197
     8  C   -0.428925
     9  H    0.173860
    10  H    0.187097
    11  C    0.769453
    12  O   -0.846069
    13  O   -0.850469
    14  C    0.383235
    15  O   -0.600455
    16  H    0.383727
    17  H    0.201504
 Sum of Mulliken charges =  -1.00000
 Mulliken charges with hydrogens summed into heavy atoms:
               1
     1  N   -0.148173
     3  C    0.128302
     5  C    0.030641
     8  C   -0.067968
    11  C    0.769453
    12  O   -0.846069
    13  O   -0.850469
    14  C    0.584739
    15  O   -0.600455
 DipInt: DoE/N= T F RetVal/Mat= T F Init=T NMatP=  1 IDeriv=0 Min/MaxMlt=  0  4
 Entering OneElI...
 OneElI was handed   134156805 working-precision words.
 Multipole integrals L=0 to 4 MinM= 0 MaxM= 0.
 Requested accuracy = 0.1000D-12
 ShPair: Thresh= 1.00D-13 NBox=     0 BxSize= 0.00D+00 RnKept= 1.32D+01
         NSMCal=                 1378 NSMKep=                1264
 PrsmSu:  NPrtUS=   1 ThrOK=F IAlg=1 NPAlg=1 LenDen=           0.
 Prism:   IPart=     0 DynPar=F LinDyn=F Incr=          12.
 PRISM was handed   134038219 working-precision words and  1264 shell-pairs
 IPart=  0 NShTot=        1264 NBatch=          44 AvBLen=        28.7
 PrSmSu:  NxtVal=             13.
 Electronic moments (au):
        -70.00000000         -5.15315432          2.50609624         -0.44866919
      -1255.92759650       -274.70924307       -136.30721321          1.04841232
          0.77374309          2.60463401       -875.03328359       -100.58230054
        -45.31719267        655.49455787        662.66839269        198.11278195
       -273.25900697          3.34800539        -89.64021689        227.06989339
     -36009.37740664      -3009.51174744       -818.07420799      -1277.18266074
       1105.60005329       -151.52323839       -283.74631011       -148.01217191
        115.59723162      -4485.23963506      -2674.02833534       -451.14521499
        110.30083974         47.96977697        375.12451986
 Electronic spatial extent (au):  <R**2>=           1666.9441
 DipInt: DoE/N= F T RetVal/Mat= T F Init=T NMatP=  1 IDeriv=0 Min/MaxMlt=  0  4
 Nuclear    moments (au):
         69.00000000         -0.00000000          0.00000000          0.00000000
       1173.91738741        228.22205309         92.75822353         -0.00000000
          0.00000444          0.00000767        670.17218091        121.54437454
         44.47172678       -622.89681077       -622.33251109       -188.52813347
        233.51535870          5.10369277         87.63601112       -212.89205427
      30432.68646777       2098.01821510        381.76146759       1334.65824104
       -928.42946215        133.25403895        292.99772799        120.21704020
        -91.22483073       3389.88135784       1766.15293866        235.32667618
        -74.88516322        -58.29232444       -352.17942240
 Total      moments (au):
         -1.00000000         -5.15315432          2.50609624         -0.44866919
        -82.01020908        -46.48718997        -43.54898968          1.04841232
          0.77374754          2.60464168       -204.86110267         20.96207401
         -0.84546589         32.59774710         40.33588160          9.58464848
        -39.74364828          8.45169816         -2.00420576         14.17783912
      -5576.69093887       -911.49353234       -436.31274039         57.47558030
        177.17059114        -18.26919944          9.25141788        -27.79513171
         24.37240089      -1095.35827722       -907.87539668       -215.81853881
         35.41567652        -10.32254747         22.94509745
 Traceless Quadrup. (au):
        -24.66141284         10.86160627         13.79980656          1.04841232
          0.77374754          2.60464168
 Charge=             -1.0000 electrons
 Dipole moment (field-independent basis, Debye):
    X=            -13.0980    Y=              6.3699    Z=             -1.1404  Tot=             14.6094
 Quadrupole moment (field-independent basis, Debye-Ang):
   XX=           -110.3065   YY=            -62.5269   ZZ=            -58.5749
   XY=              1.4102   XZ=              1.0407   YZ=              3.5033
 Traceless Quadrupole moment (field-independent basis, Debye-Ang):
   XX=            -33.1704   YY=             14.6092   ZZ=             18.5612
   XY=              1.4102   XZ=              1.0407   YZ=              3.5033
 Octapole moment (field-independent basis, Debye-Ang**2):
  XXX=           -145.8122  YYY=             14.9200  ZZZ=             -0.6018  XYY=             23.2018
  XXY=             28.7095  XXZ=              6.8220  XZZ=            -28.2880  YZZ=              6.0156
  YYZ=             -1.4265  XYZ=             10.0912
 Hexadecapole moment (field-independent basis, Debye-Ang**3):
 XXXX=          -2100.4491 YYYY=           -343.3121 ZZZZ=           -164.3363 XXXY=             21.6481
 XXXZ=             66.7309 YYYX=             -6.8811 YYYZ=              3.4845 ZZZX=            -10.4690
 ZZZY=              9.1798 XXYY=           -412.5644 XXZZ=           -341.9494 YYZZ=            -81.2876
 XXYZ=             13.3392 YYXZ=             -3.8880 ZZXY=              8.6422
 N-N= 4.334839246414D+02 E-N=-1.991846801256D+03  KE= 4.721293042808D+02
 Entering OneElI...
 OneElI was handed   134167705 working-precision words.
 Calculate electrostatic properties
    NBasis =   151  MinDer = 0  MaxDer = 0
    NGrid  =    17  NMatD  =   1
 Requested accuracy = 0.1000D-12
 ShPair: Thresh= 1.00D-13 NBox=     0 BxSize= 0.00D+00 RnKept= 1.32D+01
         NSMCal=                 1378 NSMKep=                1207
 PrsmSu:  NPrtUS=   8 ThrOK=T IAlg=1 NPAlg=1 LenDen=           0.
 Prism:   IPart=     0 DynPar=F LinDyn=F Incr=          25.
 PRISM was handed    16720503 working-precision words and  1207 shell-pairs
 PRISM was handed    16720503 working-precision words and  1207 shell-pairs
 PRISM was handed    16720503 working-precision words and  1207 shell-pairs
 PRISM was handed    16720503 working-precision words and  1207 shell-pairs
 PRISM was handed    16720503 working-precision words and  1207 shell-pairs
 PRISM was handed    16720503 working-precision words and  1207 shell-pairs
 PRISM was handed    16720503 working-precision words and  1207 shell-pairs
 PRISM was handed    16720503 working-precision words and  1207 shell-pairs
 IPart=  0 NShTot=        2924 NBatch=         172 AvBLen=        17.0
 IPart=  4 NShTot=        2482 NBatch=         146 AvBLen=        17.0
 IPart=  1 NShTot=        2822 NBatch=         166 AvBLen=        17.0
 IPart=  5 NShTot=        2363 NBatch=         139 AvBLen=        17.0
 IPart=  3 NShTot=        2584 NBatch=         152 AvBLen=        17.0
 IPart=  2 NShTot=        2686 NBatch=         158 AvBLen=        17.0
 IPart=  6 NShTot=        2346 NBatch=         138 AvBLen=        17.0
 IPart=  7 NShTot=        2312 NBatch=         136 AvBLen=        17.0
 PrSmSu:  NxtVal=            201.
 --------------------------------------------------------
       Center         ----      EFG at Nuclei      ----
                      3XX-RR        3YY-RR        3ZZ-RR
 --------------------------------------------------------
     1   Atom        0.850745     -0.401637     -0.449108
     2   Atom        0.196216      0.142326     -0.338541
     3   Atom        0.055215     -0.074154      0.018939
     4   Atom        0.139975      0.108977     -0.248952
     5   Atom       -0.037897      0.004738      0.033159
     6   Atom        0.148987      0.116286     -0.265273
     7   Atom        0.143949     -0.168046      0.024097
     8   Atom       -0.005467     -0.009072      0.014539
     9   Atom        0.147269      0.117011     -0.264280
    10   Atom        0.138813     -0.155420      0.016607
    11   Atom        0.230020     -0.354586      0.124566
    12   Atom        1.187169     -0.328443     -0.858726
    13   Atom       -0.117201      0.176628     -0.059426
    14   Atom        0.408145      0.325511     -0.733656
    15   Atom        1.914470     -0.637337     -1.277133
    16   Atom       -0.029462     -0.094858      0.124319
    17   Atom       -0.174400      0.050343      0.124057
 --------------------------------------------------------
                        XY            XZ            YZ
 --------------------------------------------------------
     1   Atom       -0.381433      0.184227     -0.152316
     2   Atom        0.005362     -0.109589      0.102515
     3   Atom       -0.018253      0.020530     -0.127854
     4   Atom       -0.005200     -0.001845      0.102103
     5   Atom        0.005322     -0.002009      0.015730
     6   Atom        0.000807      0.006895      0.110836
     7   Atom        0.020000      0.009276     -0.201030
     8   Atom       -0.015881     -0.015494      0.010334
     9   Atom       -0.003774      0.002563      0.117515
    10   Atom        0.008722      0.004287     -0.204674
    11   Atom       -0.280833     -0.125072     -0.340561
    12   Atom       -0.398497     -0.366108      0.447129
    13   Atom       -0.583624      1.024570     -0.537083
    14   Atom        0.021334     -0.057963     -0.061042
    15   Atom        0.099370     -0.151887     -0.030937
    16   Atom       -0.280017      0.112620      0.100012
    17   Atom        0.163446      0.007465     -0.001921
 --------------------------------------------------------


 ---------------------------------------------------------------------------------
              Nuclear Quadrupole Coupling Constant in Principal Axis System
 ---------------------------------------------------------------------------------

       Atom             a.u.   MegaHertz   Gauss  10(-4) cm-1        Axes

              Baa    -0.5922     2.844     1.015     0.949  0.1154  0.7508  0.6504
     1 N(14)  Bbb    -0.3988     1.916     0.683     0.639 -0.2929 -0.6000  0.7445
              Bcc     0.9911    -4.760    -1.698    -1.588  0.9492 -0.2764  0.1507
 

 ---------------------------------------------------------------------------------

 No NMR shielding tensors so no spin-rotation constants.
 Leave Link  601 at Mon Apr  3 11:23:44 2023, MaxMem=   134217728 cpu:         0.8
 FitSet:  NAtFit=    17 NAtPot=    17 NAtFrz=     0 MDM=    21 TotChg=  -1.00000
 Merz-Kollman atomic radii used.
 Atom Element Radius
    1     7    1.50
    2     1    1.20
    3     6    1.50
    4     1    1.20
    5     6    1.50
    6     1    1.20
    7     1    1.20
    8     6    1.50
    9     1    1.20
   10     1    1.20
   11     6    1.50
   12     8    1.40
   13     8    1.40
   14     6    1.50
   15     8    1.40
   16     1    1.20
   17     1    1.20
 Generate VDW surfaces: Layer= 4 Dens= 6 Start= 1.400 Inc= 0.200

 **********************************************************************

            Electrostatic Properties Using The SCF Density

 **********************************************************************

       Atomic Center    1 is at  -1.759125  1.692871  0.461486
       Atomic Center    2 is at  -1.556470  1.496043  1.439551
       Atomic Center    3 is at  -1.496785  0.477802 -0.311827
       Atomic Center    4 is at  -1.504266  0.764195 -1.373193
       Atomic Center    5 is at  -0.191640 -0.245481  0.002631
       Atomic Center    6 is at  -0.193667 -0.531033  1.059268
       Atomic Center    7 is at  -0.149582 -1.170398 -0.580254
       Atomic Center    8 is at   1.038390  0.605375 -0.297205
       Atomic Center    9 is at   1.046708  0.906990 -1.347431
       Atomic Center   10 is at   1.011825  1.518078  0.309037
       Atomic Center   11 is at   2.351140 -0.113633  0.029062
       Atomic Center   12 is at   2.420346 -0.707783  1.136351
       Atomic Center   13 is at   3.274421 -0.050806 -0.821309
       Atomic Center   14 is at  -2.697033 -0.426642 -0.171925
       Atomic Center   15 is at  -2.644909 -1.632131 -0.099501
       Atomic Center   16 is at  -1.095598  2.407910  0.181261
       Atomic Center   17 is at  -3.668368  0.099347 -0.147389
      ESP Fit Center   18 is at  -1.142265  3.043606  1.946410
      ESP Fit Center   19 is at  -1.547798  3.162681  1.946410
      ESP Fit Center   20 is at  -1.970452  3.162681  1.946410
      ESP Fit Center   21 is at  -2.375985  3.043606  1.946410
      ESP Fit Center   22 is at  -2.731544  2.815102  1.946410
      ESP Fit Center   23 is at  -3.008323  2.495682  1.946410
      ESP Fit Center   24 is at  -3.183899  2.111223  1.946410
      ESP Fit Center   25 is at  -3.244049  1.692871  1.946410
      ESP Fit Center   26 is at  -3.183899  1.274520  1.946410
      ESP Fit Center   27 is at  -0.213043  2.504318  1.628184
      ESP Fit Center   28 is at  -1.139954  3.325490  1.628184
      ESP Fit Center   29 is at  -1.548658  3.426226  1.628184
      ESP Fit Center   30 is at  -1.969593  3.426226  1.628184
      ESP Fit Center   31 is at  -2.378296  3.325490  1.628184
      ESP Fit Center   32 is at  -2.751015  3.129872  1.628184
      ESP Fit Center   33 is at  -3.066089  2.850740  1.628184
      ESP Fit Center   34 is at  -3.305208  2.504318  1.628184
      ESP Fit Center   35 is at  -3.454473  2.110737  1.628184
      ESP Fit Center   36 is at  -3.505211  1.692871  1.628184
      ESP Fit Center   37 is at  -3.454473  1.275005  1.628184
      ESP Fit Center   38 is at  -3.305208  0.881424  1.628184
      ESP Fit Center   39 is at  -1.654088  3.630173  1.265121
      ESP Fit Center   40 is at  -2.073006  3.607460  1.265121
      ESP Fit Center   41 is at  -2.477248  3.495222  1.265121
      ESP Fit Center   42 is at  -2.847910  3.298709  1.265121
      ESP Fit Center   43 is at  -3.167663  3.027109  1.265121
      ESP Fit Center   44 is at  -3.421554  2.693121  1.265121
      ESP Fit Center   45 is at  -3.597712  2.312363  1.265121
      ESP Fit Center   46 is at  -3.687899  1.902638  1.265121
      ESP Fit Center   47 is at  -3.687899  1.483104  1.265121
      ESP Fit Center   48 is at  -3.597712  1.073379  1.265121
      ESP Fit Center   49 is at  -1.863445  3.749877  0.871176
      ESP Fit Center   50 is at  -2.275381  3.686770  0.871176
      ESP Fit Center   51 is at  -2.666182  3.542033  0.871176
      ESP Fit Center   52 is at  -3.019849  3.321592  0.871176
      ESP Fit Center   53 is at  -3.321901  3.034470  0.871176
      ESP Fit Center   54 is at  -3.559972  2.692423  0.871176
      ESP Fit Center   55 is at  -3.724317  2.309454  0.871176
      ESP Fit Center   56 is at  -3.808207  1.901242  0.871176
      ESP Fit Center   57 is at  -3.808207  1.484500  0.871176
      ESP Fit Center   58 is at  -2.168815  3.752520  0.461486
      ESP Fit Center   59 is at  -2.562760  3.633018  0.461486
      ESP Fit Center   60 is at  -2.925823  3.438957  0.461486
      ESP Fit Center   61 is at  -3.244049  3.177795  0.461486
      ESP Fit Center   62 is at  -3.505211  2.859569  0.461486
      ESP Fit Center   63 is at  -3.699272  2.496506  0.461486
      ESP Fit Center   64 is at  -3.818774  2.102561  0.461486
      ESP Fit Center   65 is at  -3.859125  1.692871  0.461486
      ESP Fit Center   66 is at  -2.275381  3.686770  0.051796
      ESP Fit Center   67 is at  -2.666182  3.542033  0.051796
      ESP Fit Center   68 is at  -3.019849  3.321592  0.051796
      ESP Fit Center   69 is at  -3.321901  3.034470  0.051796
      ESP Fit Center   70 is at  -3.559972  2.692423  0.051796
      ESP Fit Center   71 is at  -3.724317  2.309454  0.051796
      ESP Fit Center   72 is at  -3.808207  1.901242  0.051796
      ESP Fit Center   73 is at  -2.477248  3.495222 -0.342149
      ESP Fit Center   74 is at  -2.847910  3.298709 -0.342149
      ESP Fit Center   75 is at  -3.167663  3.027109 -0.342149
      ESP Fit Center   76 is at  -3.421554  2.693121 -0.342149
      ESP Fit Center   77 is at  -3.597712  2.312363 -0.342149
      ESP Fit Center   78 is at  -3.687899  1.902638 -0.342149
      ESP Fit Center   79 is at  -2.378296  3.325490 -0.705211
      ESP Fit Center   80 is at  -2.751015  3.129872 -0.705211
      ESP Fit Center   81 is at  -3.066089  2.850740 -0.705211
      ESP Fit Center   82 is at  -3.305208  2.504318 -0.705211
      ESP Fit Center   83 is at  -3.454473  2.110737 -0.705211
      ESP Fit Center   84 is at  -3.505211  1.692871 -0.705211
      ESP Fit Center   85 is at  -2.375985  3.043606 -1.023438
      ESP Fit Center   86 is at  -2.731544  2.815102 -1.023438
      ESP Fit Center   87 is at  -3.008323  2.495682 -1.023438
      ESP Fit Center   88 is at  -3.183899  2.111223 -1.023438
      ESP Fit Center   89 is at  -3.244049  1.692871 -1.023438
      ESP Fit Center   90 is at  -2.078407  2.815031 -1.284600
      ESP Fit Center   91 is at  -2.462217  2.623916 -1.284600
      ESP Fit Center   92 is at  -2.751071  2.307058 -1.284600
      ESP Fit Center   93 is at  -2.905957  1.907251 -1.284600
      ESP Fit Center   94 is at  -1.759125  2.496506 -1.478661
      ESP Fit Center   95 is at  -2.160943  2.388840 -1.478661
      ESP Fit Center   96 is at  -1.556470  1.496043  3.119551
      ESP Fit Center   97 is at  -1.121654  1.496043  3.062306
      ESP Fit Center   98 is at  -1.339062  1.872605  3.062306
      ESP Fit Center   99 is at  -1.773878  1.872605  3.062306
      ESP Fit Center  100 is at  -1.991286  1.496043  3.062306
      ESP Fit Center  101 is at  -1.773878  1.119481  3.062306
      ESP Fit Center  102 is at  -1.339062  1.119481  3.062306
      ESP Fit Center  103 is at  -0.716470  1.496043  2.894474
      ESP Fit Center  104 is at  -0.829009  1.916043  2.894474
      ESP Fit Center  105 is at  -1.136470  2.223504  2.894474
      ESP Fit Center  106 is at  -1.556470  2.336043  2.894474
      ESP Fit Center  107 is at  -1.976470  2.223504  2.894474
      ESP Fit Center  108 is at  -2.283931  1.916043  2.894474
      ESP Fit Center  109 is at  -2.396470  1.496043  2.894474
      ESP Fit Center  110 is at  -2.283931  1.076043  2.894474
      ESP Fit Center  111 is at  -1.976470  0.768582  2.894474
      ESP Fit Center  112 is at  -1.556470  0.656043  2.894474
      ESP Fit Center  113 is at  -1.136470  0.768582  2.894474
      ESP Fit Center  114 is at  -0.829009  1.076043  2.894474
      ESP Fit Center  115 is at  -0.368531  1.496043  2.627490
      ESP Fit Center  116 is at  -0.448750  1.925176  2.627490
      ESP Fit Center  117 is at  -0.678572  2.296353  2.627490
      ESP Fit Center  118 is at  -1.026960  2.559443  2.627490
      ESP Fit Center  119 is at  -1.446861  2.678915  2.627490
      ESP Fit Center  120 is at  -1.881565  2.638634  2.627490
      ESP Fit Center  121 is at  -2.272363  2.444039  2.627490
      ESP Fit Center  122 is at  -2.566476  2.121413  2.627490
      ESP Fit Center  123 is at  -2.724183  1.714326  2.627490
      ESP Fit Center  124 is at  -2.724183  1.277760  2.627490
      ESP Fit Center  125 is at  -2.566476  0.870674  2.627490
      ESP Fit Center  126 is at  -2.272363  0.548047  2.627490
      ESP Fit Center  127 is at  -1.881565  0.353452  2.627490
      ESP Fit Center  128 is at  -1.446861  0.313171  2.627490
      ESP Fit Center  129 is at  -1.026960  0.432643  2.627490
      ESP Fit Center  130 is at  -0.678572  0.695733  2.627490
      ESP Fit Center  131 is at  -0.448750  1.066910  2.627490
      ESP Fit Center  132 is at  -0.101547  1.496043  2.279551
      ESP Fit Center  133 is at  -0.166186  1.924889  2.279551
      ESP Fit Center  134 is at  -0.354357  2.315630  2.279551
      ESP Fit Center  135 is at  -0.649341  2.633547  2.279551
      ESP Fit Center  136 is at  -1.024927  2.850392  2.279551
      ESP Fit Center  137 is at  -1.447744  2.946897  2.279551
      ESP Fit Center  138 is at  -1.880221  2.914488  2.279551
      ESP Fit Center  139 is at  -2.283931  2.756043  2.279551
      ESP Fit Center  140 is at  -2.623004  2.485642  2.279551
      ESP Fit Center  141 is at  -2.867310  2.127310  2.279551
      ESP Fit Center  142 is at  -2.995142  1.712888  2.279551
      ESP Fit Center  143 is at  -2.995142  1.279198  2.279551
      ESP Fit Center  144 is at  -2.867310  0.864776  2.279551
      ESP Fit Center  145 is at  -2.623004  0.506444  2.279551
      ESP Fit Center  146 is at  -2.283931  0.236043  2.279551
      ESP Fit Center  147 is at  -1.880221  0.077598  2.279551
      ESP Fit Center  148 is at  -1.447744  0.045189  2.279551
      ESP Fit Center  149 is at  -0.354357  0.676456  2.279551
      ESP Fit Center  150 is at  -0.166186  1.067197  2.279551
      ESP Fit Center  151 is at   0.066285  1.496043  1.874367
      ESP Fit Center  152 is at   0.010991  1.916043  1.874367
      ESP Fit Center  153 is at  -0.151123  2.307421  1.874367
      ESP Fit Center  154 is at  -0.409009  2.643504  1.874367
      ESP Fit Center  155 is at  -0.745092  2.901390  1.874367
      ESP Fit Center  156 is at  -2.961817  0.684665  1.874367
      ESP Fit Center  157 is at  -2.703931  0.348582  1.874367
      ESP Fit Center  158 is at  -2.367848  0.090696  1.874367
      ESP Fit Center  159 is at  -1.976470 -0.071418  1.874367
      ESP Fit Center  160 is at   0.010991  1.076043  1.874367
      ESP Fit Center  161 is at  -3.159214  1.478052 -1.115462
      ESP Fit Center  162 is at  -2.863415  1.751674 -1.373193
      ESP Fit Center  163 is at  -0.356805  1.911656 -1.808009
      ESP Fit Center  164 is at  -0.692888  2.169542 -1.808009
      ESP Fit Center  165 is at  -1.084266  2.331656 -1.808009
      ESP Fit Center  166 is at  -1.504266  2.386950 -1.808009
      ESP Fit Center  167 is at  -1.924266  2.331656 -1.808009
      ESP Fit Center  168 is at  -2.315644  2.169542 -1.808009
      ESP Fit Center  169 is at  -2.651727  1.911656 -1.808009
      ESP Fit Center  170 is at  -2.909613  1.575573 -1.808009
      ESP Fit Center  171 is at  -3.071727  1.184195 -1.808009
      ESP Fit Center  172 is at  -0.302153  1.583782 -2.213193
      ESP Fit Center  173 is at  -0.597137  1.901699 -2.213193
      ESP Fit Center  174 is at  -0.972723  2.118544 -2.213193
      ESP Fit Center  175 is at  -1.395540  2.215049 -2.213193
      ESP Fit Center  176 is at  -1.828017  2.182640 -2.213193
      ESP Fit Center  177 is at  -2.231727  2.024195 -2.213193
      ESP Fit Center  178 is at  -2.570800  1.753794 -2.213193
      ESP Fit Center  179 is at  -2.815106  1.395462 -2.213193
      ESP Fit Center  180 is at  -2.942938  0.981040 -2.213193
      ESP Fit Center  181 is at  -2.942938  0.547350 -2.213193
      ESP Fit Center  182 is at  -2.815106  0.132928 -2.213193
      ESP Fit Center  183 is at  -1.828017 -0.654250 -2.213193
      ESP Fit Center  184 is at  -1.395540 -0.686659 -2.213193
      ESP Fit Center  185 is at  -0.972723 -0.590154 -2.213193
      ESP Fit Center  186 is at  -0.597137 -0.373309 -2.213193
      ESP Fit Center  187 is at  -0.302153 -0.055392 -2.213193
      ESP Fit Center  188 is at  -0.316327  0.764195 -2.561132
      ESP Fit Center  189 is at  -0.396546  1.193328 -2.561132
      ESP Fit Center  190 is at  -0.626368  1.564505 -2.561132
      ESP Fit Center  191 is at  -0.974756  1.827595 -2.561132
      ESP Fit Center  192 is at  -1.394657  1.947067 -2.561132
      ESP Fit Center  193 is at  -1.829361  1.906786 -2.561132
      ESP Fit Center  194 is at  -2.220159  1.712191 -2.561132
      ESP Fit Center  195 is at  -2.514272  1.389565 -2.561132
      ESP Fit Center  196 is at  -2.671979  0.982478 -2.561132
      ESP Fit Center  197 is at  -2.671979  0.545912 -2.561132
      ESP Fit Center  198 is at  -2.514272  0.138826 -2.561132
      ESP Fit Center  199 is at  -2.220159 -0.183801 -2.561132
      ESP Fit Center  200 is at  -1.829361 -0.378396 -2.561132
      ESP Fit Center  201 is at  -1.394657 -0.418677 -2.561132
      ESP Fit Center  202 is at  -0.974756 -0.299205 -2.561132
      ESP Fit Center  203 is at  -0.626368 -0.036115 -2.561132
      ESP Fit Center  204 is at  -0.396546  0.335062 -2.561132
      ESP Fit Center  205 is at  -0.664266  0.764195 -2.828116
      ESP Fit Center  206 is at  -0.776805  1.184195 -2.828116
      ESP Fit Center  207 is at  -1.084266  1.491656 -2.828116
      ESP Fit Center  208 is at  -1.504266  1.604195 -2.828116
      ESP Fit Center  209 is at  -1.924266  1.491656 -2.828116
      ESP Fit Center  210 is at  -2.231727  1.184195 -2.828116
      ESP Fit Center  211 is at  -2.344266  0.764195 -2.828116
      ESP Fit Center  212 is at  -2.231727  0.344195 -2.828116
      ESP Fit Center  213 is at  -1.924266  0.036734 -2.828116
      ESP Fit Center  214 is at  -1.504266 -0.075805 -2.828116
      ESP Fit Center  215 is at  -1.084266  0.036734 -2.828116
      ESP Fit Center  216 is at  -0.776805  0.344195 -2.828116
      ESP Fit Center  217 is at  -1.069450  0.764195 -2.995948
      ESP Fit Center  218 is at  -1.286858  1.140757 -2.995948
      ESP Fit Center  219 is at  -1.721674  1.140757 -2.995948
      ESP Fit Center  220 is at  -1.939082  0.764195 -2.995948
      ESP Fit Center  221 is at  -1.721674  0.387633 -2.995948
      ESP Fit Center  222 is at  -1.286858  0.387633 -2.995948
      ESP Fit Center  223 is at  -1.504266  0.764195 -3.053193
      ESP Fit Center  224 is at  -0.909762 -2.047832  0.806266
      ESP Fit Center  225 is at   0.327404 -2.114910  0.806266
      ESP Fit Center  226 is at   0.717141 -1.959624  0.806266
      ESP Fit Center  227 is at  -0.191640 -0.245481 -2.097369
      ESP Fit Center  228 is at  -0.193667 -0.531033  2.739268
      ESP Fit Center  229 is at   0.241149 -0.531033  2.682023
      ESP Fit Center  230 is at   0.023741 -0.154471  2.682023
      ESP Fit Center  231 is at  -0.411075 -0.154471  2.682023
      ESP Fit Center  232 is at  -0.628483 -0.531033  2.682023
      ESP Fit Center  233 is at  -0.411075 -0.907595  2.682023
      ESP Fit Center  234 is at   0.023741 -0.907595  2.682023
      ESP Fit Center  235 is at   0.646333 -0.531033  2.514191
      ESP Fit Center  236 is at   0.533794 -0.111033  2.514191
      ESP Fit Center  237 is at   0.226333  0.196428  2.514191
      ESP Fit Center  238 is at  -0.193667  0.308967  2.514191
      ESP Fit Center  239 is at  -0.613667  0.196428  2.514191
      ESP Fit Center  240 is at  -0.921128 -0.111033  2.514191
      ESP Fit Center  241 is at  -1.033667 -0.531033  2.514191
      ESP Fit Center  242 is at  -0.921128 -0.951033  2.514191
      ESP Fit Center  243 is at  -0.613667 -1.258494  2.514191
      ESP Fit Center  244 is at  -0.193667 -1.371033  2.514191
      ESP Fit Center  245 is at   0.226333 -1.258494  2.514191
      ESP Fit Center  246 is at   0.533794 -0.951033  2.514191
      ESP Fit Center  247 is at   0.914053 -0.101900  2.247207
      ESP Fit Center  248 is at   0.684231  0.269277  2.247207
      ESP Fit Center  249 is at   0.335843  0.532367  2.247207
      ESP Fit Center  250 is at  -0.084058  0.651839  2.247207
      ESP Fit Center  251 is at  -1.361380 -0.312750  2.247207
      ESP Fit Center  252 is at  -1.361380 -0.749316  2.247207
      ESP Fit Center  253 is at  -1.203673 -1.156402  2.247207
      ESP Fit Center  254 is at  -0.909560 -1.479029  2.247207
      ESP Fit Center  255 is at  -0.518762 -1.673624  2.247207
      ESP Fit Center  256 is at  -0.084058 -1.713905  2.247207
      ESP Fit Center  257 is at   0.335843 -1.594433  2.247207
      ESP Fit Center  258 is at   0.684231 -1.331343  2.247207
      ESP Fit Center  259 is at   0.713462  0.606471  1.899268
      ESP Fit Center  260 is at   0.337876  0.823316  1.899268
      ESP Fit Center  261 is at  -1.632339 -0.314188  1.899268
      ESP Fit Center  262 is at  -1.632339 -0.747878  1.899268
      ESP Fit Center  263 is at  -1.504507 -1.162300  1.899268
      ESP Fit Center  264 is at  -1.260201 -1.520632  1.899268
      ESP Fit Center  265 is at  -0.921128 -1.791033  1.899268
      ESP Fit Center  266 is at  -0.517418 -1.949478  1.899268
      ESP Fit Center  267 is at  -0.084941 -1.981887  1.899268
      ESP Fit Center  268 is at   0.337876 -1.885382  1.899268
      ESP Fit Center  269 is at   0.713462 -1.668537  1.899268
      ESP Fit Center  270 is at  -1.341128 -1.678494  1.494084
      ESP Fit Center  271 is at  -1.005045 -1.936380  1.494084
      ESP Fit Center  272 is at  -0.613667 -2.098494  1.494084
      ESP Fit Center  273 is at  -0.193667 -2.153788  1.494084
      ESP Fit Center  274 is at   0.226333 -2.098494  1.494084
      ESP Fit Center  275 is at   0.617711 -1.936380  1.494084
      ESP Fit Center  276 is at  -0.908976 -2.051142  1.059268
      ESP Fit Center  277 is at  -0.508468 -2.181276  1.059268
      ESP Fit Center  278 is at  -0.088179 -2.207718  1.059268
      ESP Fit Center  279 is at   0.325482 -2.128808  1.059268
      ESP Fit Center  280 is at   0.706522 -1.949504  1.059268
      ESP Fit Center  281 is at  -0.474677 -2.312989  0.607685
      ESP Fit Center  282 is at  -0.039973 -2.353270  0.607685
      ESP Fit Center  283 is at   0.379928 -2.233798  0.607685
      ESP Fit Center  284 is at  -0.877043 -2.430398  0.259746
      ESP Fit Center  285 is at  -0.473333 -2.588843  0.259746
      ESP Fit Center  286 is at  -0.040856 -2.621252  0.259746
      ESP Fit Center  287 is at   0.381961 -2.524747  0.259746
      ESP Fit Center  288 is at   0.757547 -2.307902  0.259746
      ESP Fit Center  289 is at   1.052532 -1.989985  0.259746
      ESP Fit Center  290 is at  -0.569582 -2.737859 -0.145438
      ESP Fit Center  291 is at  -0.149582 -2.793153 -0.145438
      ESP Fit Center  292 is at   0.270418 -2.737859 -0.145438
      ESP Fit Center  293 is at   0.661796 -2.575745 -0.145438
      ESP Fit Center  294 is at   0.997879 -2.317859 -0.145438
      ESP Fit Center  295 is at   1.255765 -1.981776 -0.145438
      ESP Fit Center  296 is at  -0.864891 -2.690507 -0.580254
      ESP Fit Center  297 is at  -0.464383 -2.820641 -0.580254
      ESP Fit Center  298 is at  -0.044094 -2.847083 -0.580254
      ESP Fit Center  299 is at   0.369567 -2.768173 -0.580254
      ESP Fit Center  300 is at   0.750607 -2.588869 -0.580254
      ESP Fit Center  301 is at   1.075085 -2.320437 -0.580254
      ESP Fit Center  302 is at   1.322613 -1.979744 -0.580254
      ESP Fit Center  303 is at  -0.960960 -2.575745 -1.015070
      ESP Fit Center  304 is at  -0.569582 -2.737859 -1.015070
      ESP Fit Center  305 is at  -0.149582 -2.793153 -1.015070
      ESP Fit Center  306 is at   0.270418 -2.737859 -1.015070
      ESP Fit Center  307 is at   0.661796 -2.575745 -1.015070
      ESP Fit Center  308 is at   0.997879 -2.317859 -1.015070
      ESP Fit Center  309 is at   1.255765 -1.981776 -1.015070
      ESP Fit Center  310 is at  -1.216116 -2.159997 -1.420254
      ESP Fit Center  311 is at  -0.877043 -2.430398 -1.420254
      ESP Fit Center  312 is at  -0.473333 -2.588843 -1.420254
      ESP Fit Center  313 is at  -0.040856 -2.621252 -1.420254
      ESP Fit Center  314 is at   0.381961 -2.524747 -1.420254
      ESP Fit Center  315 is at   0.757547 -2.307902 -1.420254
      ESP Fit Center  316 is at   1.052532 -1.989985 -1.420254
      ESP Fit Center  317 is at   1.240703 -1.599244 -1.420254
      ESP Fit Center  318 is at   1.038357 -1.170398 -1.768193
      ESP Fit Center  319 is at  -1.317294 -1.388681 -1.768193
      ESP Fit Center  320 is at  -1.159588 -1.795767 -1.768193
      ESP Fit Center  321 is at  -0.865475 -2.118394 -1.768193
      ESP Fit Center  322 is at  -0.474677 -2.312989 -1.768193
      ESP Fit Center  323 is at  -0.039973 -2.353270 -1.768193
      ESP Fit Center  324 is at   0.379928 -2.233798 -1.768193
      ESP Fit Center  325 is at   0.728316 -1.970708 -1.768193
      ESP Fit Center  326 is at   0.958138 -1.599531 -1.768193
      ESP Fit Center  327 is at   0.690418 -1.170398 -2.035177
      ESP Fit Center  328 is at   0.577879 -0.750398 -2.035177
      ESP Fit Center  329 is at  -0.877043 -0.750398 -2.035177
      ESP Fit Center  330 is at  -0.989582 -1.170398 -2.035177
      ESP Fit Center  331 is at  -0.877043 -1.590398 -2.035177
      ESP Fit Center  332 is at  -0.569582 -1.897859 -2.035177
      ESP Fit Center  333 is at  -0.149582 -2.010398 -2.035177
      ESP Fit Center  334 is at   0.270418 -1.897859 -2.035177
      ESP Fit Center  335 is at   0.577879 -1.590398 -2.035177
      ESP Fit Center  336 is at   0.285234 -1.170398 -2.203009
      ESP Fit Center  337 is at   0.067826 -0.793836 -2.203009
      ESP Fit Center  338 is at  -0.366990 -0.793836 -2.203009
      ESP Fit Center  339 is at  -0.584398 -1.170398 -2.203009
      ESP Fit Center  340 is at  -0.366990 -1.546960 -2.203009
      ESP Fit Center  341 is at   0.067826 -1.546960 -2.203009
      ESP Fit Center  342 is at  -0.149582 -1.170398 -2.260254
      ESP Fit Center  343 is at   1.038390  0.605375  1.802795
      ESP Fit Center  344 is at   2.523314  2.090299 -0.297205
      ESP Fit Center  345 is at   2.457420  2.098194 -0.706895
      ESP Fit Center  346 is at   2.127870  2.353284 -0.706895
      ESP Fit Center  347 is at   2.582928  1.779502 -1.100840
      ESP Fit Center  348 is at   2.294415  2.084082 -1.100840
      ESP Fit Center  349 is at   1.947171  2.319518 -1.100840
      ESP Fit Center  350 is at   0.320268  2.407727 -1.100840
      ESP Fit Center  351 is at   1.249717 -0.864435 -1.782129
      ESP Fit Center  352 is at   2.518903  1.716336 -1.347431
      ESP Fit Center  353 is at   2.271375  2.057029 -1.347431
      ESP Fit Center  354 is at   1.946897  2.325461 -1.347431
      ESP Fit Center  355 is at   1.565856  2.504765 -1.347431
      ESP Fit Center  356 is at   1.152196  2.583675 -1.347431
      ESP Fit Center  357 is at   0.731907  2.557233 -1.347431
      ESP Fit Center  358 is at   0.331399  2.427100 -1.347431
      ESP Fit Center  359 is at  -0.024164  2.201452 -1.347431
      ESP Fit Center  360 is at   2.452055  1.718368 -1.782247
      ESP Fit Center  361 is at   2.194169  2.054451 -1.782247
      ESP Fit Center  362 is at   1.858086  2.312337 -1.782247
      ESP Fit Center  363 is at   1.466708  2.474451 -1.782247
      ESP Fit Center  364 is at   1.046708  2.529745 -1.782247
      ESP Fit Center  365 is at   0.626708  2.474451 -1.782247
      ESP Fit Center  366 is at   0.235330  2.312337 -1.782247
      ESP Fit Center  367 is at  -0.100753  2.054451 -1.782247
      ESP Fit Center  368 is at   2.436992  1.335836 -2.187431
      ESP Fit Center  369 is at   2.248821  1.726577 -2.187431
      ESP Fit Center  370 is at   1.953837  2.044494 -2.187431
      ESP Fit Center  371 is at   1.578251  2.261339 -2.187431
      ESP Fit Center  372 is at   1.155434  2.357845 -2.187431
      ESP Fit Center  373 is at   0.722957  2.325435 -2.187431
      ESP Fit Center  374 is at   0.319247  2.166990 -2.187431
      ESP Fit Center  375 is at  -0.019826  1.896589 -2.187431
      ESP Fit Center  376 is at  -0.019826 -0.082609 -2.187431
      ESP Fit Center  377 is at   0.319247 -0.353010 -2.187431
      ESP Fit Center  378 is at   0.722957 -0.511455 -2.187431
      ESP Fit Center  379 is at   1.155434 -0.543864 -2.187431
      ESP Fit Center  380 is at   1.578251 -0.447359 -2.187431
      ESP Fit Center  381 is at   2.234647  0.906990 -2.535370
      ESP Fit Center  382 is at   2.154428  1.336123 -2.535370
      ESP Fit Center  383 is at   1.924606  1.707300 -2.535370
      ESP Fit Center  384 is at   1.576218  1.970390 -2.535370
      ESP Fit Center  385 is at   1.156317  2.089862 -2.535370
      ESP Fit Center  386 is at   0.721613  2.049581 -2.535370
      ESP Fit Center  387 is at   0.330815  1.854986 -2.535370
      ESP Fit Center  388 is at   0.036702  1.532360 -2.535370
      ESP Fit Center  389 is at  -0.121005  1.125273 -2.535370
      ESP Fit Center  390 is at  -0.121005  0.688707 -2.535370
      ESP Fit Center  391 is at   0.036702  0.281621 -2.535370
      ESP Fit Center  392 is at   0.330815 -0.041006 -2.535370
      ESP Fit Center  393 is at   0.721613 -0.235600 -2.535370
      ESP Fit Center  394 is at   1.156317 -0.275882 -2.535370
      ESP Fit Center  395 is at   1.576218 -0.156410 -2.535370
      ESP Fit Center  396 is at   1.924606  0.106680 -2.535370
      ESP Fit Center  397 is at   2.154428  0.477857 -2.535370
      ESP Fit Center  398 is at   1.886708  0.906990 -2.802354
      ESP Fit Center  399 is at   1.774169  1.326990 -2.802354
      ESP Fit Center  400 is at   1.466708  1.634451 -2.802354
      ESP Fit Center  401 is at   1.046708  1.746990 -2.802354
      ESP Fit Center  402 is at   0.626708  1.634451 -2.802354
      ESP Fit Center  403 is at   0.319247  1.326990 -2.802354
      ESP Fit Center  404 is at   0.206708  0.906990 -2.802354
      ESP Fit Center  405 is at   0.319247  0.486990 -2.802354
      ESP Fit Center  406 is at   0.626708  0.179529 -2.802354
      ESP Fit Center  407 is at   1.046708  0.066990 -2.802354
      ESP Fit Center  408 is at   1.466708  0.179529 -2.802354
      ESP Fit Center  409 is at   1.774169  0.486990 -2.802354
      ESP Fit Center  410 is at   1.481524  0.906990 -2.970186
      ESP Fit Center  411 is at   1.264116  1.283552 -2.970186
      ESP Fit Center  412 is at   0.829300  1.283552 -2.970186
      ESP Fit Center  413 is at   0.611892  0.906990 -2.970186
      ESP Fit Center  414 is at   0.829300  0.530428 -2.970186
      ESP Fit Center  415 is at   1.264116  0.530428 -2.970186
      ESP Fit Center  416 is at   1.046708  0.906990 -3.027431
      ESP Fit Center  417 is at   1.011825  1.518078  1.989037
      ESP Fit Center  418 is at   1.446641  1.518078  1.931792
      ESP Fit Center  419 is at   1.229233  1.894640  1.931792
      ESP Fit Center  420 is at   0.794417  1.894640  1.931792
      ESP Fit Center  421 is at   0.577009  1.518078  1.931792
      ESP Fit Center  422 is at   0.794417  1.141516  1.931792
      ESP Fit Center  423 is at   1.229233  1.141516  1.931792
      ESP Fit Center  424 is at   1.851825  1.518078  1.763960
      ESP Fit Center  425 is at   1.739286  1.938078  1.763960
      ESP Fit Center  426 is at   1.431825  2.245539  1.763960
      ESP Fit Center  427 is at   1.011825  2.358078  1.763960
      ESP Fit Center  428 is at   0.591825  2.245539  1.763960
      ESP Fit Center  429 is at   0.284364  1.938078  1.763960
      ESP Fit Center  430 is at   0.171825  1.518078  1.763960
      ESP Fit Center  431 is at   0.284364  1.098078  1.763960
      ESP Fit Center  432 is at   0.591825  0.790617  1.763960
      ESP Fit Center  433 is at   1.739286  1.098078  1.763960
      ESP Fit Center  434 is at   2.199764  1.518078  1.496976
      ESP Fit Center  435 is at   2.119545  1.947211  1.496976
      ESP Fit Center  436 is at   1.889723  2.318388  1.496976
      ESP Fit Center  437 is at   1.541335  2.581478  1.496976
      ESP Fit Center  438 is at   1.121434  2.700950  1.496976
      ESP Fit Center  439 is at   0.686730  2.660669  1.496976
      ESP Fit Center  440 is at   0.295932  2.466074  1.496976
      ESP Fit Center  441 is at   2.402109  1.946924  1.149037
      ESP Fit Center  442 is at   2.213938  2.337665  1.149037
      ESP Fit Center  443 is at   1.918954  2.655582  1.149037
      ESP Fit Center  444 is at   1.543368  2.872427  1.149037
      ESP Fit Center  445 is at   1.120551  2.968933  1.149037
      ESP Fit Center  446 is at   0.688074  2.936523  1.149037
      ESP Fit Center  447 is at   0.284364  2.778078  1.149037
      ESP Fit Center  448 is at   2.579286  1.938078  0.743853
      ESP Fit Center  449 is at   2.417172  2.329456  0.743853
      ESP Fit Center  450 is at   2.159286  2.665539  0.743853
      ESP Fit Center  451 is at   1.823203  2.923425  0.743853
      ESP Fit Center  452 is at   1.431825  3.085539  0.743853
      ESP Fit Center  453 is at   1.011825  3.140833  0.743853
      ESP Fit Center  454 is at   0.591825  3.085539  0.743853
      ESP Fit Center  455 is at   2.484020  2.327424  0.309037
      ESP Fit Center  456 is at   2.236492  2.668117  0.309037
      ESP Fit Center  457 is at   1.912014  2.936549  0.309037
      ESP Fit Center  458 is at   1.530973  3.115853  0.309037
      ESP Fit Center  459 is at   1.117313  3.194763  0.309037
      ESP Fit Center  460 is at   0.697024  3.168321  0.309037
      ESP Fit Center  461 is at   2.417172  2.329456 -0.125779
      ESP Fit Center  462 is at   2.159286  2.665539 -0.125779
      ESP Fit Center  463 is at   1.823203  2.923425 -0.125779
      ESP Fit Center  464 is at   1.431825  3.085539 -0.125779
      ESP Fit Center  465 is at   1.011825  3.140833 -0.125779
      ESP Fit Center  466 is at   0.591825  3.085539 -0.125779
      ESP Fit Center  467 is at   2.213938  2.337665 -0.530963
      ESP Fit Center  468 is at   1.918954  2.655582 -0.530963
      ESP Fit Center  469 is at   1.543368  2.872427 -0.530963
      ESP Fit Center  470 is at   1.120551  2.968933 -0.530963
      ESP Fit Center  471 is at   0.688074  2.936523 -0.530963
      ESP Fit Center  472 is at   1.541335  2.581478 -0.878902
      ESP Fit Center  473 is at   1.121434  2.700950 -0.878902
      ESP Fit Center  474 is at   0.686730  2.660669 -0.878902
      ESP Fit Center  475 is at   3.323559  1.008598  1.513986
      ESP Fit Center  476 is at   2.968000  1.237102  1.513986
      ESP Fit Center  477 is at   2.562467  1.356177  1.513986
      ESP Fit Center  478 is at   3.897222  0.697814  1.195760
      ESP Fit Center  479 is at   3.658104  1.044236  1.195760
      ESP Fit Center  480 is at   3.343030  1.323368  1.195760
      ESP Fit Center  481 is at   2.970311  1.518986  1.195760
      ESP Fit Center  482 is at   2.561607  1.619722  1.195760
      ESP Fit Center  483 is at   4.111970  0.701014  0.832697
      ESP Fit Center  484 is at   3.895678  1.060494  0.832697
      ESP Fit Center  485 is at   3.607165  1.365074  0.832697
      ESP Fit Center  486 is at   3.259921  1.600510  0.832697
      ESP Fit Center  487 is at   2.870184  1.755796  0.832697
      ESP Fit Center  488 is at   3.770170  1.379186  0.438752
      ESP Fit Center  489 is at   3.440620  1.634276  0.438752
      ESP Fit Center  490 is at   3.066467  1.817807  0.438752
      ESP Fit Center  491 is at   2.663028  1.922265  0.438752
      ESP Fit Center  492 is at   3.154775  1.826514  0.029062
      ESP Fit Center  493 is at   2.760830  1.946016  0.029062
      ESP Fit Center  494 is at   1.444083 -1.962795 -0.380628
      ESP Fit Center  495 is at   1.834884 -2.107532 -0.380628
      ESP Fit Center  496 is at   2.246820 -2.170638 -0.380628
      ESP Fit Center  497 is at   2.663028 -2.149531 -0.380628
      ESP Fit Center  498 is at   3.066467 -2.045073 -0.380628
      ESP Fit Center  499 is at   1.633018 -1.915984 -0.774573
      ESP Fit Center  500 is at   2.037259 -2.028221 -0.774573
      ESP Fit Center  501 is at   2.456177 -2.050935 -0.774573
      ESP Fit Center  502 is at   2.870184 -1.983062 -0.774573
      ESP Fit Center  503 is at   1.731969 -1.746252 -1.137635
      ESP Fit Center  504 is at   2.140673 -1.846988 -1.137635
      ESP Fit Center  505 is at   1.378721 -1.235864 -1.455862
      ESP Fit Center  506 is at   1.734280 -1.464367 -1.455862
      ESP Fit Center  507 is at   2.139813 -1.583443 -1.455862
      ESP Fit Center  508 is at   1.648048 -1.044678 -1.717024
      ESP Fit Center  509 is at   2.420346 -0.707783  3.096351
      ESP Fit Center  510 is at   2.827853 -0.707783  3.053520
      ESP Fit Center  511 is at   2.624099 -0.354872  3.053520
      ESP Fit Center  512 is at   2.216593 -0.354872  3.053520
      ESP Fit Center  513 is at   2.012839 -0.707783  3.053520
      ESP Fit Center  514 is at   2.216593 -1.060694  3.053520
      ESP Fit Center  515 is at   2.624099 -1.060694  3.053520
      ESP Fit Center  516 is at   3.217550 -0.707783  2.926900
      ESP Fit Center  517 is at   3.110745 -0.309181  2.926900
      ESP Fit Center  518 is at   2.818948 -0.017384  2.926900
      ESP Fit Center  519 is at   2.420346  0.089421  2.926900
      ESP Fit Center  520 is at   2.021744 -0.017384  2.926900
      ESP Fit Center  521 is at   1.729947 -0.309181  2.926900
      ESP Fit Center  522 is at   1.623142 -0.707783  2.926900
      ESP Fit Center  523 is at   1.729947 -1.106385  2.926900
      ESP Fit Center  524 is at   2.021744 -1.398182  2.926900
      ESP Fit Center  525 is at   2.420346 -1.504987  2.926900
      ESP Fit Center  526 is at   2.818948 -1.398182  2.926900
      ESP Fit Center  527 is at   3.110745 -1.106385  2.926900
      ESP Fit Center  528 is at   3.572405 -0.707783  2.722024
      ESP Fit Center  529 is at   3.494609 -0.291611  2.722024
      ESP Fit Center  530 is at   3.271728  0.068354  2.722024
      ESP Fit Center  531 is at   2.933863  0.323498  2.722024
      ESP Fit Center  532 is at   2.526645  0.439362  2.722024
      ESP Fit Center  533 is at   2.105070  0.400297  2.722024
      ESP Fit Center  534 is at   1.726075  0.211580  2.722024
      ESP Fit Center  535 is at   1.440846 -0.101302  2.722024
      ESP Fit Center  536 is at   1.287903 -0.496093  2.722024
      ESP Fit Center  537 is at   1.287903 -0.919473  2.722024
      ESP Fit Center  538 is at   1.440846 -1.314264  2.722024
      ESP Fit Center  539 is at   1.726075 -1.627146  2.722024
      ESP Fit Center  540 is at   2.105070 -1.815863  2.722024
      ESP Fit Center  541 is at   2.526645 -1.854927  2.722024
      ESP Fit Center  542 is at   2.933863 -1.739064  2.722024
      ESP Fit Center  543 is at   3.271728 -1.483920  2.722024
      ESP Fit Center  544 is at   3.494609 -1.123955  2.722024
      ESP Fit Center  545 is at   3.876910 -0.707783  2.447847
      ESP Fit Center  546 is at   3.817909 -0.297421  2.447847
      ESP Fit Center  547 is at   3.645685  0.079695  2.447847
      ESP Fit Center  548 is at   3.374192  0.393015  2.447847
      ESP Fit Center  549 is at   3.025424  0.617154  2.447847
      ESP Fit Center  550 is at   2.627637  0.733955  2.447847
      ESP Fit Center  551 is at   2.213055  0.733955  2.447847
      ESP Fit Center  552 is at   1.815267  0.617154  2.447847
      ESP Fit Center  553 is at   1.466499  0.393015  2.447847
      ESP Fit Center  554 is at   1.195006  0.079695  2.447847
      ESP Fit Center  555 is at   1.022783 -0.297421  2.447847
      ESP Fit Center  556 is at   0.963782 -0.707783  2.447847
      ESP Fit Center  557 is at   1.022783 -1.118144  2.447847
      ESP Fit Center  558 is at   1.195006 -1.495261  2.447847
      ESP Fit Center  559 is at   1.466499 -1.808580  2.447847
      ESP Fit Center  560 is at   1.815267 -2.032720  2.447847
      ESP Fit Center  561 is at   2.213055 -2.149521  2.447847
      ESP Fit Center  562 is at   2.627637 -2.149521  2.447847
      ESP Fit Center  563 is at   3.025424 -2.032720  2.447847
      ESP Fit Center  564 is at   3.374192 -1.808580  2.447847
      ESP Fit Center  565 is at   3.645685 -1.495261  2.447847
      ESP Fit Center  566 is at   3.817909 -1.118144  2.447847
      ESP Fit Center  567 is at   4.117756 -0.707783  2.116351
      ESP Fit Center  568 is at   4.064429 -0.285654  2.116351
      ESP Fit Center  569 is at   3.907798  0.109951  2.116351
      ESP Fit Center  570 is at   3.657704  0.454174  2.116351
      ESP Fit Center  571 is at   3.329864  0.725388  2.116351
      ESP Fit Center  572 is at   2.944874  0.906550  2.116351
      ESP Fit Center  573 is at   2.526927  0.986277  2.116351
      ESP Fit Center  574 is at   2.102283  0.959561  2.116351
      ESP Fit Center  575 is at   1.697624  0.828079  2.116351
      ESP Fit Center  576 is at   1.338376  0.600094  2.116351
      ESP Fit Center  577 is at   1.047113  0.289930  2.116351
      ESP Fit Center  578 is at   0.842134 -1.332641  2.116351
      ESP Fit Center  579 is at   1.047113 -1.705495  2.116351
      ESP Fit Center  580 is at   1.338376 -2.015660  2.116351
      ESP Fit Center  581 is at   1.697624 -2.243645  2.116351
      ESP Fit Center  582 is at   2.102283 -2.375127  2.116351
      ESP Fit Center  583 is at   2.526927 -2.401843  2.116351
      ESP Fit Center  584 is at   2.944874 -2.322116  2.116351
      ESP Fit Center  585 is at   3.329864 -2.140953  2.116351
      ESP Fit Center  586 is at   3.657704 -1.869740  2.116351
      ESP Fit Center  587 is at   3.907798 -1.525516  2.116351
      ESP Fit Center  588 is at   4.064429 -1.129912  2.116351
      ESP Fit Center  589 is at   4.284417 -0.707783  1.742024
      ESP Fit Center  590 is at   4.237681 -0.292988  1.742024
      ESP Fit Center  591 is at   4.099816  0.101007  1.742024
      ESP Fit Center  592 is at   3.877735  0.454446  1.742024
      ESP Fit Center  593 is at   3.582575  0.749606  1.742024
      ESP Fit Center  594 is at   3.229136  0.971687  1.742024
      ESP Fit Center  595 is at   2.835141  1.109552  1.742024
      ESP Fit Center  596 is at   2.420346  1.156288  1.742024
      ESP Fit Center  597 is at   2.005551  1.109552  1.742024
      ESP Fit Center  598 is at   0.962957 -1.870012  1.742024
      ESP Fit Center  599 is at   1.258117 -2.165172  1.742024
      ESP Fit Center  600 is at   1.611556 -2.387253  1.742024
      ESP Fit Center  601 is at   2.005551 -2.525118  1.742024
      ESP Fit Center  602 is at   2.420346 -2.571854  1.742024
      ESP Fit Center  603 is at   2.835141 -2.525118  1.742024
      ESP Fit Center  604 is at   3.229136 -2.387253  1.742024
      ESP Fit Center  605 is at   3.582575 -2.165172  1.742024
      ESP Fit Center  606 is at   3.877735 -1.870012  1.742024
      ESP Fit Center  607 is at   4.099816 -1.516573  1.742024
      ESP Fit Center  608 is at   4.237681 -1.122578  1.742024
      ESP Fit Center  609 is at   4.369609 -0.707783  1.341227
      ESP Fit Center  610 is at   4.324036 -0.288749  1.341227
      ESP Fit Center  611 is at   4.189449  0.110691  1.341227
      ESP Fit Center  612 is at   3.972141  0.471861  1.341227
      ESP Fit Center  613 is at   1.005190 -2.048290  1.341227
      ESP Fit Center  614 is at   1.326445 -2.321166  1.341227
      ESP Fit Center  615 is at   1.698849 -2.518603  1.341227
      ESP Fit Center  616 is at   2.104990 -2.631367  1.341227
      ESP Fit Center  617 is at   2.525877 -2.654187  1.341227
      ESP Fit Center  618 is at   2.941829 -2.585995  1.341227
      ESP Fit Center  619 is at   3.333397 -2.429980  1.341227
      ESP Fit Center  620 is at   3.682272 -2.193437  1.341227
      ESP Fit Center  621 is at   3.972141 -1.887427  1.341227
      ESP Fit Center  622 is at   4.189449 -1.526257  1.341227
      ESP Fit Center  623 is at   4.324036 -1.126817  1.341227
      ESP Fit Center  624 is at   4.369609 -0.707783  0.931475
      ESP Fit Center  625 is at   4.324036 -0.288749  0.931475
      ESP Fit Center  626 is at   1.005190 -2.048290  0.931475
      ESP Fit Center  627 is at   1.326445 -2.321166  0.931475
      ESP Fit Center  628 is at   1.698849 -2.518603  0.931475
      ESP Fit Center  629 is at   2.104990 -2.631367  0.931475
      ESP Fit Center  630 is at   2.525877 -2.654187  0.931475
      ESP Fit Center  631 is at   2.941829 -2.585995  0.931475
      ESP Fit Center  632 is at   3.333397 -2.429980  0.931475
      ESP Fit Center  633 is at   3.682272 -2.193437  0.931475
      ESP Fit Center  634 is at   3.972141 -1.887427  0.931475
      ESP Fit Center  635 is at   4.189449 -1.526257  0.931475
      ESP Fit Center  636 is at   4.324036 -1.126817  0.931475
      ESP Fit Center  637 is at   1.258117 -2.165172  0.530678
      ESP Fit Center  638 is at   1.611556 -2.387253  0.530678
      ESP Fit Center  639 is at   2.005551 -2.525118  0.530678
      ESP Fit Center  640 is at   2.420346 -2.571854  0.530678
      ESP Fit Center  641 is at   2.835141 -2.525118  0.530678
      ESP Fit Center  642 is at   3.229136 -2.387253  0.530678
      ESP Fit Center  643 is at   3.582575 -2.165172  0.530678
      ESP Fit Center  644 is at   3.877735 -1.870012  0.530678
      ESP Fit Center  645 is at   4.099816 -1.516573  0.530678
      ESP Fit Center  646 is at   4.237681 -1.122578  0.530678
      ESP Fit Center  647 is at   1.338376 -2.015660  0.156351
      ESP Fit Center  648 is at   1.697624 -2.243645  0.156351
      ESP Fit Center  649 is at   2.102283 -2.375127  0.156351
      ESP Fit Center  650 is at   2.526927 -2.401843  0.156351
      ESP Fit Center  651 is at   2.944874 -2.322116  0.156351
      ESP Fit Center  652 is at   3.329864 -2.140953  0.156351
      ESP Fit Center  653 is at   3.657704 -1.869740  0.156351
      ESP Fit Center  654 is at   4.426480 -0.050806  0.764364
      ESP Fit Center  655 is at   4.348684  0.365366  0.764364
      ESP Fit Center  656 is at   4.348684 -0.466978  0.764364
      ESP Fit Center  657 is at   4.730985 -0.050806  0.490187
      ESP Fit Center  658 is at   4.671984  0.359556  0.490187
      ESP Fit Center  659 is at   4.499760  0.736672  0.490187
      ESP Fit Center  660 is at   4.228267  1.049992  0.490187
      ESP Fit Center  661 is at   3.879499  1.274131  0.490187
      ESP Fit Center  662 is at   4.228267 -1.151603  0.490187
      ESP Fit Center  663 is at   4.499760 -0.838284  0.490187
      ESP Fit Center  664 is at   4.671984 -0.461167  0.490187
      ESP Fit Center  665 is at   4.971831 -0.050806  0.158691
      ESP Fit Center  666 is at   4.918503  0.371323  0.158691
      ESP Fit Center  667 is at   4.761872  0.766928  0.158691
      ESP Fit Center  668 is at   4.511779  1.111151  0.158691
      ESP Fit Center  669 is at   4.183939  1.382365  0.158691
      ESP Fit Center  670 is at   3.798949  1.563527  0.158691
      ESP Fit Center  671 is at   4.183939 -1.483976  0.158691
      ESP Fit Center  672 is at   4.511779 -1.212763  0.158691
      ESP Fit Center  673 is at   4.761872 -0.868539  0.158691
      ESP Fit Center  674 is at   4.918503 -0.472935  0.158691
      ESP Fit Center  675 is at   5.138492 -0.050806 -0.215636
      ESP Fit Center  676 is at   5.091756  0.363989 -0.215636
      ESP Fit Center  677 is at   4.953891  0.757984 -0.215636
      ESP Fit Center  678 is at   4.731810  1.111423 -0.215636
      ESP Fit Center  679 is at   4.436650  1.406583 -0.215636
      ESP Fit Center  680 is at   4.083211  1.628664 -0.215636
      ESP Fit Center  681 is at   3.689216  1.766529 -0.215636
      ESP Fit Center  682 is at   3.274421  1.813265 -0.215636
      ESP Fit Center  683 is at   3.689216 -1.868140 -0.215636
      ESP Fit Center  684 is at   4.083211 -1.730276 -0.215636
      ESP Fit Center  685 is at   4.436650 -1.508195 -0.215636
      ESP Fit Center  686 is at   4.731810 -1.213035 -0.215636
      ESP Fit Center  687 is at   4.953891 -0.859596 -0.215636
      ESP Fit Center  688 is at   5.091756 -0.465601 -0.215636
      ESP Fit Center  689 is at   5.223684 -0.050806 -0.616433
      ESP Fit Center  690 is at   5.178111  0.368228 -0.616433
      ESP Fit Center  691 is at   5.043524  0.767668 -0.616433
      ESP Fit Center  692 is at   4.826216  1.128838 -0.616433
      ESP Fit Center  693 is at   4.536347  1.434848 -0.616433
      ESP Fit Center  694 is at   4.187472  1.671391 -0.616433
      ESP Fit Center  695 is at   3.795904  1.827406 -0.616433
      ESP Fit Center  696 is at   3.379952  1.895598 -0.616433
      ESP Fit Center  697 is at   2.959065  1.872778 -0.616433
      ESP Fit Center  698 is at   3.379952 -1.997210 -0.616433
      ESP Fit Center  699 is at   3.795904 -1.929018 -0.616433
      ESP Fit Center  700 is at   4.187472 -1.773003 -0.616433
      ESP Fit Center  701 is at   4.536347 -1.536460 -0.616433
      ESP Fit Center  702 is at   4.826216 -1.230450 -0.616433
      ESP Fit Center  703 is at   5.043524 -0.869280 -0.616433
      ESP Fit Center  704 is at   5.178111 -0.469840 -0.616433
      ESP Fit Center  705 is at   5.223684 -0.050806 -1.026185
      ESP Fit Center  706 is at   5.178111  0.368228 -1.026185
      ESP Fit Center  707 is at   5.043524  0.767668 -1.026185
[...]
 4830 Fit      -0.187967
 4831 Fit      -0.183975
 4832 Fit      -0.175793
 4833 Fit      -0.172917
 4834 Fit      -0.170098
 4835 Fit      -0.167299
 4836 Fit      -0.164477
 4837 Fit      -0.161579
 4838 Fit      -0.158539
 4839 Fit      -0.155285
 4840 Fit      -0.151735
 4841 Fit      -0.196200
 4842 Fit      -0.192216
 4843 Fit      -0.188529
 4844 Fit      -0.185087
 4845 Fit      -0.181844
 4846 Fit      -0.178758
 4847 Fit      -0.172144
 4848 Fit      -0.169658
 4849 Fit      -0.167186
 4850 Fit      -0.164706
 4851 Fit      -0.162187
 4852 Fit      -0.159584
 4853 Fit      -0.156842
 4854 Fit      -0.153895
 4855 Fit      -0.150669
 4856 Fit      -0.147092
 4857 Fit      -0.193752
 4858 Fit      -0.190879
 4859 Fit      -0.188025
 4860 Fit      -0.185227
 4861 Fit      -0.182495
 4862 Fit      -0.179829
 4863 Fit      -0.177220
 4864 Fit      -0.174661
 4865 Fit      -0.169068
 4866 Fit      -0.166920
 4867 Fit      -0.164764
 4868 Fit      -0.162586
 4869 Fit      -0.160363
 4870 Fit      -0.158061
 4871 Fit      -0.155633
 4872 Fit      -0.153022
 4873 Fit      -0.150167
 4874 Fit      -0.147004
 4875 Fit      -0.143486
 4876 Fit      -0.188020
 4877 Fit      -0.186849
 4878 Fit      -0.185314
 4879 Fit      -0.183550
 4880 Fit      -0.181639
 4881 Fit      -0.179637
 4882 Fit      -0.177574
 4883 Fit      -0.175473
 4884 Fit      -0.173349
 4885 Fit      -0.171212
 4886 Fit      -0.166411
 4887 Fit      -0.164519
 4888 Fit      -0.162605
 4889 Fit      -0.160662
 4890 Fit      -0.158671
 4891 Fit      -0.156602
 4892 Fit      -0.154414
 4893 Fit      -0.152056
 4894 Fit      -0.149471
 4895 Fit      -0.146605
 4896 Fit      -0.143419
 4897 Fit      -0.139916
 4898 Fit      -0.179850
 4899 Fit      -0.180126
 4900 Fit      -0.179812
 4901 Fit      -0.179065
 4902 Fit      -0.177998
 4903 Fit      -0.176695
 4904 Fit      -0.175216
 4905 Fit      -0.173604
 4906 Fit      -0.171894
 4907 Fit      -0.170112
 4908 Fit      -0.168279
 4909 Fit      -0.164083
 4910 Fit      -0.162388
 4911 Fit      -0.160661
 4912 Fit      -0.158899
 4913 Fit      -0.157085
 4914 Fit      -0.155192
 4915 Fit      -0.153179
 4916 Fit      -0.150997
 4917 Fit      -0.148592
 4918 Fit      -0.145916
 4919 Fit      -0.142935
 4920 Fit      -0.139654
 4921 Fit      -0.173022
 4922 Fit      -0.173949
 4923 Fit      -0.174258
 4924 Fit      -0.174081
 4925 Fit      -0.173521
 4926 Fit      -0.172661
 4927 Fit      -0.171567
 4928 Fit      -0.170289
 4929 Fit      -0.168869
 4930 Fit      -0.167343
 4931 Fit      -0.165740
 4932 Fit      -0.162028
 4933 Fit      -0.160523
 4934 Fit      -0.158980
 4935 Fit      -0.157396
 4936 Fit      -0.155759
 4937 Fit      -0.154041
 4938 Fit      -0.152205
 4939 Fit      -0.150206
 4940 Fit      -0.147993
 4941 Fit      -0.145522
 4942 Fit      -0.142758
 4943 Fit      -0.139687
 4944 Fit      -0.165585
 4945 Fit      -0.167602
 4946 Fit      -0.168910
 4947 Fit      -0.169620
 4948 Fit      -0.169836
 4949 Fit      -0.169647
 4950 Fit      -0.169127
 4951 Fit      -0.168341
 4952 Fit      -0.167340
 4953 Fit      -0.166172
 4954 Fit      -0.164876
 4955 Fit      -0.163486
 4956 Fit      -0.160212
 4957 Fit      -0.158818
 4958 Fit      -0.157375
 4959 Fit      -0.155882
 4960 Fit      -0.154323
 4961 Fit      -0.152667
 4962 Fit      -0.150873
 4963 Fit      -0.148891
 4964 Fit      -0.146669
 4965 Fit      -0.144162
 4966 Fit      -0.141324
 4967 Fit      -0.159426
 4968 Fit      -0.162087
 4969 Fit      -0.164020
 4970 Fit      -0.165304
 4971 Fit      -0.166026
 4972 Fit      -0.166270
 4973 Fit      -0.166115
 4974 Fit      -0.165631
 4975 Fit      -0.164879
 4976 Fit      -0.163916
 4977 Fit      -0.162790
 4978 Fit      -0.161544
 4979 Fit      -0.158604
 4980 Fit      -0.157284
 4981 Fit      -0.155898
 4982 Fit      -0.154443
 4983 Fit      -0.152899
 4984 Fit      -0.151229
 4985 Fit      -0.149381
 4986 Fit      -0.147302
 4987 Fit      -0.144937
 4988 Fit      -0.142228
 4989 Fit      -0.148702
 4990 Fit      -0.152680
 4991 Fit      -0.156074
 4992 Fit      -0.158784
 4993 Fit      -0.160803
 4994 Fit      -0.162177
 4995 Fit      -0.162973
 4996 Fit      -0.163271
 4997 Fit      -0.163147
 4998 Fit      -0.162676
 4999 Fit      -0.161928
 5000 Fit      -0.160965
 5001 Fit      -0.159842
 5002 Fit      -0.157171
 5003 Fit      -0.155925
 5004 Fit      -0.154588
 5005 Fit      -0.153157
 5006 Fit      -0.151606
 5007 Fit      -0.149893
 5008 Fit      -0.147965
 5009 Fit      -0.145772
 5010 Fit      -0.143272
 5011 Fit      -0.146484
 5012 Fit      -0.150175
 5013 Fit      -0.153436
 5014 Fit      -0.156119
 5015 Fit      -0.158161
 5016 Fit      -0.159567
 5017 Fit      -0.160387
 5018 Fit      -0.160690
 5019 Fit      -0.160555
 5020 Fit      -0.160062
 5021 Fit      -0.159290
 5022 Fit      -0.158307
 5023 Fit      -0.155871
 5024 Fit      -0.154649
 5025 Fit      -0.153291
 5026 Fit      -0.151794
 5027 Fit      -0.150128
 5028 Fit      -0.148251
 5029 Fit      -0.146131
 5030 Fit      -0.143782
 5031 Fit      -0.147047
 5032 Fit      -0.150297
 5033 Fit      -0.153155
 5034 Fit      -0.155434
 5035 Fit      -0.157056
 5036 Fit      -0.158028
 5037 Fit      -0.158410
 5038 Fit      -0.158288
 5039 Fit      -0.157763
 5040 Fit      -0.156929
 5041 Fit      -0.154646
 5042 Fit      -0.153365
 5043 Fit      -0.151859
 5044 Fit      -0.150136
 5045 Fit      -0.148194
 5046 Fit      -0.146086
 5047 Fit      -0.144044
 5048 Fit      -0.143954
 5049 Fit      -0.146536
 5050 Fit      -0.149488
 5051 Fit      -0.152223
 5052 Fit      -0.154361
 5053 Fit      -0.155733
 5054 Fit      -0.156333
 5055 Fit      -0.156257
 5056 Fit      -0.155647
 5057 Fit      -0.153426
 5058 Fit      -0.152005
 5059 Fit      -0.150218
 5060 Fit      -0.148239
 5061 Fit      -0.146475
 5062 Fit      -0.145728
 5063 Fit      -0.146671
 5064 Fit      -0.148957
 5065 Fit      -0.151525
 5066 Fit      -0.153474
 5067 Fit      -0.154396
 5068 Fit      -0.154305
 5069 Fit      -0.152123
 5070 Fit      -0.150380
 5071 Fit      -0.148649
 5072 Fit      -0.148859
 5073 Fit      -0.151010
 5074 Fit      -0.152525
 5075 Fit      -0.150637
 5076 Fit      -0.076397
 5077 Fit      -0.078558
 5078 Fit      -0.070743
 5079 Fit      -0.074760
 5080 Fit      -0.080894
 5081 Fit      -0.083594
 5082 Fit      -0.069538
 5083 Fit      -0.073369
 5084 Fit      -0.079030
 5085 Fit      -0.085380
 5086 Fit      -0.090340
 5087 Fit      -0.091997
 5088 Fit      -0.089162
 5089 Fit      -0.066991
 5090 Fit      -0.068732
 5091 Fit      -0.072050
 5092 Fit      -0.077121
 5093 Fit      -0.083466
 5094 Fit      -0.066376
 5095 Fit      -0.066793
 5096 Fit      -0.068927
 5097 Fit      -0.072926
 5098 Fit      -0.078596
 5099 Fit      -0.085481
 5100 Fit      -0.065391
 5101 Fit      -0.065595
 5102 Fit      -0.067603
 5103 Fit      -0.071321
 5104 Fit      -0.076579
 5105 Fit      -0.083120
 5106 Fit      -0.069795
 5107 Fit      -0.075121
 5108 Fit      -0.081819
 5109 Fit      -0.073510
 5110 Fit      -0.080217
 5111 Fit      -0.075265
 5112 Fit      -0.077228
 5113 Fit      -0.075878
 5114 Fit      -0.075216
 5115 Fit      -0.074445
 5116 Fit      -0.073584
 5117 Fit      -0.073422
 5118 Fit      -0.070234
 5119 Fit      -0.077138
 5120 Fit      -0.059482
 5121 Fit      -0.062272
 5122 Fit      -0.067381
 5123 Fit      -0.073546
 5124 Fit      -0.056426
 5125 Fit      -0.055130
 5126 Fit      -0.058841
 5127 Fit      -0.062749
 5128 Fit      -0.067791
 5129 Fit      -0.073849
 5130 Fit      -0.055205
 5131 Fit      -0.054938
 5132 Fit      -0.055375
 5133 Fit      -0.056836
 5134 Fit      -0.059466
 5135 Fit      -0.063279
 5136 Fit      -0.068189
 5137 Fit      -0.074011
 5138 Fit      -0.055464
 5139 Fit      -0.055975
 5140 Fit      -0.057403
 5141 Fit      -0.060074
 5142 Fit      -0.064066
 5143 Fit      -0.069238
 5144 Fit      -0.075224
 5145 Fit      -0.081419
 5146 Fit      -0.093323
 5147 Fit      -0.057464
 5148 Fit      -0.059421
 5149 Fit      -0.062743
 5150 Fit      -0.067375
 5151 Fit      -0.072862
 5152 Fit      -0.078385
 5153 Fit      -0.082955
 5154 Fit      -0.085734
 5155 Fit      -0.086303
 5156 Fit      -0.084644
 5157 Fit      -0.060427
 5158 Fit      -0.063796
 5159 Fit      -0.068715
 5160 Fit      -0.073992
 5161 Fit      -0.077861
 5162 Fit      -0.078911
 5163 Fit      -0.062277
 5164 Fit      -0.065132
 5165 Fit      -0.070172
 5166 Fit      -0.072386
 5167 Fit      -0.066814
 5168 Fit      -0.096697
 5169 Fit      -0.101141
 5170 Fit      -0.093205
 5171 Fit      -0.098803
 5172 Fit      -0.102898
 5173 Fit      -0.106760
 5174 Fit      -0.090442
 5175 Fit      -0.095394
 5176 Fit      -0.100319
 5177 Fit      -0.104910
 5178 Fit      -0.108602
 5179 Fit      -0.109928
 5180 Fit      -0.088214
 5181 Fit      -0.092762
 5182 Fit      -0.097173
 5183 Fit      -0.101429
 5184 Fit      -0.105620
 5185 Fit      -0.109786
 5186 Fit      -0.113712
 5187 Fit      -0.116685
 5188 Fit      -0.117284
 5189 Fit      -0.086363
 5190 Fit      -0.090651
 5191 Fit      -0.094714
 5192 Fit      -0.098548
 5193 Fit      -0.102249
 5194 Fit      -0.105961
 5195 Fit      -0.109825
 5196 Fit      -0.113911
 5197 Fit      -0.118142
 5198 Fit      -0.122179
 5199 Fit      -0.125222
 5200 Fit      -0.086924
 5201 Fit      -0.091032
 5202 Fit      -0.094832
 5203 Fit      -0.098363
 5204 Fit      -0.101732
 5205 Fit      -0.105083
 5206 Fit      -0.108572
 5207 Fit      -0.112336
 5208 Fit      -0.116476
 5209 Fit      -0.121016
 5210 Fit      -0.125850
 5211 Fit      -0.130620
 5212 Fit      -0.085550
 5213 Fit      -0.089707
 5214 Fit      -0.093490
 5215 Fit      -0.096939
 5216 Fit      -0.100148
 5217 Fit      -0.103247
 5218 Fit      -0.106384
 5219 Fit      -0.109709
 5220 Fit      -0.113363
 5221 Fit      -0.117464
 5222 Fit      -0.122102
 5223 Fit      -0.127309
 5224 Fit      -0.133015
 5225 Fit      -0.138918
 5226 Fit      -0.084281
 5227 Fit      -0.088460
 5228 Fit      -0.092219
 5229 Fit      -0.095599
 5230 Fit      -0.098683
 5231 Fit      -0.101581
 5232 Fit      -0.104422
 5233 Fit      -0.107341
 5234 Fit      -0.110473
 5235 Fit      -0.113944
 5236 Fit      -0.117871
 5237 Fit      -0.122355
 5238 Fit      -0.127484
 5239 Fit      -0.133314
 5240 Fit      -0.139832
 5241 Fit      -0.080844
 5242 Fit      -0.085346
 5243 Fit      -0.089363
 5244 Fit      -0.092934
 5245 Fit      -0.096124
 5246 Fit      -0.099025
 5247 Fit      -0.101747
 5248 Fit      -0.104411
 5249 Fit      -0.107143
 5250 Fit      -0.110064
 5251 Fit      -0.113294
 5252 Fit      -0.116941
 5253 Fit      -0.121108
 5254 Fit      -0.125890
 5255 Fit      -0.131378
 5256 Fit      -0.137649
 5257 Fit      -0.144736
 5258 Fit      -0.082235
 5259 Fit      -0.086679
 5260 Fit      -0.090585
 5261 Fit      -0.094025
 5262 Fit      -0.097088
 5263 Fit      -0.099880
 5264 Fit      -0.102521
 5265 Fit      -0.105136
 5266 Fit      -0.107854
 5267 Fit      -0.110794
 5268 Fit      -0.114072
 5269 Fit      -0.117793
 5270 Fit      -0.122054
 5271 Fit      -0.126944
 5272 Fit      -0.132547
 5273 Fit      -0.138927
 5274 Fit      -0.078916
 5275 Fit      -0.083759
 5276 Fit      -0.087989
 5277 Fit      -0.091688
 5278 Fit      -0.094940
 5279 Fit      -0.097845
 5280 Fit      -0.100515
 5281 Fit      -0.103068
 5282 Fit      -0.105629
 5283 Fit      -0.108316
 5284 Fit      -0.111242
 5285 Fit      -0.114510
 5286 Fit      -0.118210
 5287 Fit      -0.122422
 5288 Fit      -0.127208
 5289 Fit      -0.132609
 5290 Fit      -0.138615
 5291 Fit      -0.083161
 5292 Fit      -0.087436
 5293 Fit      -0.091164
 5294 Fit      -0.094434
 5295 Fit      -0.097347
 5296 Fit      -0.100015
 5297 Fit      -0.102556
 5298 Fit      -0.105091
 5299 Fit      -0.107737
 5300 Fit      -0.110602
 5301 Fit      -0.113779
 5302 Fit      -0.117346
 5303 Fit      -0.121364
 5304 Fit      -0.125861
 5305 Fit      -0.130820
 5306 Fit      -0.136130
 5307 Fit      -0.080364
 5308 Fit      -0.084968
 5309 Fit      -0.088983
 5310 Fit      -0.092491
 5311 Fit      -0.095588
 5312 Fit      -0.098385
 5313 Fit      -0.100998
 5314 Fit      -0.103550
 5315 Fit      -0.106159
 5316 Fit      -0.108933
 5317 Fit      -0.111963
 5318 Fit      -0.115322
 5319 Fit      -0.119052
 5320 Fit      -0.123156
 5321 Fit      -0.127570
 5322 Fit      -0.132099
 5323 Fit      -0.082406
 5324 Fit      -0.086633
 5325 Fit      -0.090340
 5326 Fit      -0.093607
 5327 Fit      -0.096533
 5328 Fit      -0.099227
 5329 Fit      -0.101805
 5330 Fit      -0.104381
 5331 Fit      -0.107057
 5332 Fit      -0.109920
 5333 Fit      -0.113033
 5334 Fit      -0.116423
 5335 Fit      -0.120071
 5336 Fit      -0.123880
 5337 Fit      -0.127617
 5338 Fit      -0.080051
 5339 Fit      -0.084570
 5340 Fit      -0.088550
 5341 Fit      -0.092057
 5342 Fit      -0.095185
 5343 Fit      -0.098045
 5344 Fit      -0.100758
 5345 Fit      -0.103442
 5346 Fit      -0.106200
 5347 Fit      -0.109109
 5348 Fit      -0.112211
 5349 Fit      -0.115493
 5350 Fit      -0.118868
 5351 Fit      -0.122122
 5352 Fit      -0.080240
 5353 Fit      -0.084806
 5354 Fit      -0.088840
 5355 Fit      -0.092408
 5356 Fit      -0.095614
 5357 Fit      -0.098583
 5358 Fit      -0.101440
 5359 Fit      -0.104298
 5360 Fit      -0.107232
 5361 Fit      -0.110265
 5362 Fit      -0.113342
 5363 Fit      -0.116294
 5364 Fit      -0.118792
 5365 Fit      -0.080601
 5366 Fit      -0.085155
 5367 Fit      -0.089202
 5368 Fit      -0.092804
 5369 Fit      -0.096070
 5370 Fit      -0.099123
 5371 Fit      -0.102073
 5372 Fit      -0.104988
 5373 Fit      -0.107859
 5374 Fit      -0.110570
 5375 Fit      -0.112860
 5376 Fit      -0.114295
 5377 Fit      -0.083641
 5378 Fit      -0.088016
 5379 Fit      -0.091910
 5380 Fit      -0.095411
 5381 Fit      -0.098629
 5382 Fit      -0.101633
 5383 Fit      -0.104395
 5384 Fit      -0.106733
 5385 Fit      -0.108280
 5386 Fit      -0.108487
 5387 Fit      -0.097191
 5388 Fit      -0.084840
 5389 Fit      -0.089433
 5390 Fit      -0.093466
 5391 Fit      -0.096980
 5392 Fit      -0.099935
 5393 Fit      -0.102069
 5394 Fit      -0.102825
 5395 Fit      -0.101431
 5396 Fit      -0.086487
 5397 Fit      -0.091214
 5398 Fit      -0.094885
 5399 Fit      -0.096977
 5400 Fit      -0.096519
 5401 Fit      -0.088573
 5402 Fit      -0.091434
 5403 Fit      -0.068457
 5404 Fit      -0.064389
 5405 Fit      -0.061686
 5406 Fit      -0.066347
 5407 Fit      -0.062794
 5408 Fit      -0.060514
 5409 Fit      -0.059572
 5410 Fit      -0.067508
 5411 Fit      -0.063429
 5412 Fit      -0.060590
 5413 Fit      -0.059054
 5414 Fit      -0.058852
 5415 Fit      -0.060030
 5416 Fit      -0.068910
 5417 Fit      -0.064400
 5418 Fit      -0.061083
 5419 Fit      -0.059009
 5420 Fit      -0.058190
 5421 Fit      -0.058644
 5422 Fit      -0.060419
 5423 Fit      -0.069929
 5424 Fit      -0.065088
 5425 Fit      -0.061475
 5426 Fit      -0.059104
 5427 Fit      -0.057957
 5428 Fit      -0.058031
 5429 Fit      -0.059347
 5430 Fit      -0.069732
 5431 Fit      -0.064738
 5432 Fit      -0.061121
 5433 Fit      -0.058836
 5434 Fit      -0.057837
 5435 Fit      -0.058105
 5436 Fit      -0.059655
 5437 Fit      -0.068682
 5438 Fit      -0.063834
 5439 Fit      -0.060494
 5440 Fit      -0.058576
 5441 Fit      -0.058020
 5442 Fit      -0.058797
 5443 Fit      -0.060914
 5444 Fit      -0.073474
 5445 Fit      -0.067454
 5446 Fit      -0.063052
 5447 Fit      -0.060168
 5448 Fit      -0.058716
 5449 Fit      -0.058634
 5450 Fit      -0.059880
 5451 Fit      -0.070093
 5452 Fit      -0.064951
 5453 Fit      -0.061471
 5454 Fit      -0.059597
 5455 Fit      -0.059251
 5456 Fit      -0.060350
 5457 Fit      -0.072311
 5458 Fit      -0.066876
 5459 Fit      -0.062944
 5460 Fit      -0.060664
 5461 Fit      -0.060010
 5462 Fit      -0.060850
 5463 Fit      -0.067736
 5464 Fit      -0.063773
 5465 Fit      -0.061415
 5466 Fit      -0.060784
 5467 Fit      -0.067216
 5468 Fit      -0.063689
 5469 Fit      -0.061600
 5470 Fit      -0.064599
 5471 Fit      -0.063354
 5472 Fit      -0.064229
 5473 Fit      -0.067268
 5474 Fit      -0.063394
 5475 Fit      -0.061614
 5476 Fit      -0.061722
 5477 Fit      -0.063629
 5478 Fit      -0.067359
 5479 Fit      -0.064229
 5480 Fit      -0.060975
 5481 Fit      -0.059638
 5482 Fit      -0.059967
 5483 Fit      -0.061885
 5484 Fit      -0.065455
 5485 Fit      -0.065615
 5486 Fit      -0.061193
 5487 Fit      -0.058743
 5488 Fit      -0.057874
 5489 Fit      -0.058401
 5490 Fit      -0.060282
 5491 Fit      -0.063598
 5492 Fit      -0.068565
 5493 Fit      -0.069282
 5494 Fit      -0.062998
 5495 Fit      -0.059136
 5496 Fit      -0.057049
 5497 Fit      -0.056406
 5498 Fit      -0.057055
 5499 Fit      -0.058976
 5500 Fit      -0.062264
 5501 Fit      -0.067155
 5502 Fit      -0.065539
 5503 Fit      -0.060440
 5504 Fit      -0.057293
 5505 Fit      -0.055642
 5506 Fit      -0.055247
 5507 Fit      -0.056006
 5508 Fit      -0.057918
 5509 Fit      -0.061082
 5510 Fit      -0.065720
 5511 Fit      -0.072243
 5512 Fit      -0.065774
 5513 Fit      -0.060509
 5514 Fit      -0.057111
 5515 Fit      -0.055149
 5516 Fit      -0.054384
 5517 Fit      -0.054700
 5518 Fit      -0.056071
 5519 Fit      -0.058551
 5520 Fit      -0.062292
 5521 Fit      -0.067577
 5522 Fit      -0.067632
 5523 Fit      -0.061728
 5524 Fit      -0.057751
 5525 Fit      -0.055266
 5526 Fit      -0.054018
 5527 Fit      -0.053870
 5528 Fit      -0.054772
 5529 Fit      -0.056750
 5530 Fit      -0.059912
 5531 Fit      -0.064478
 5532 Fit      -0.070840
 5533 Fit      -0.066461
 5534 Fit      -0.061096
 5535 Fit      -0.057337
 5536 Fit      -0.054939
 5537 Fit      -0.053731
 5538 Fit      -0.053617
 5539 Fit      -0.054568
 5540 Fit      -0.056624
 5541 Fit      -0.059904
 5542 Fit      -0.064635
 5543 Fit      -0.064361
 5544 Fit      -0.060107
 5545 Fit      -0.056891
 5546 Fit      -0.054759
 5547 Fit      -0.053682
 5548 Fit      -0.053638
 5549 Fit      -0.054632
 5550 Fit      -0.056718
 5551 Fit      -0.060013
 5552 Fit      -0.064726
 5553 Fit      -0.059819
 5554 Fit      -0.057071
 5555 Fit      -0.055027
 5556 Fit      -0.053916
 5557 Fit      -0.053840
 5558 Fit      -0.054864
 5559 Fit      -0.057070
 5560 Fit      -0.060583
 5561 Fit      -0.056734
 5562 Fit      -0.055209
 5563 Fit      -0.054247
 5564 Fit      -0.054197
 5565 Fit      -0.055246
 5566 Fit      -0.057522
 5567 Fit      -0.054823
 5568 Fit      -0.054462
 5569 Fit      -0.054958
 5570 Fit      -0.056666
 -----------------------------------------------------------------
 Leave Link  602 at Mon Apr  3 11:23:44 2023, MaxMem=   134217728 cpu:         1.2

 Test job not archived.
 1\1\NSC-N171\SP\RHF\6-31G(d)\C5H8N1O3(1-)\X_GABOA\03-Apr-2023\0\\#HF/6
 -31G* scrf=smd SCF=tight Test Pop=MK iop(6/33=2) iop(6/42=6) # iop(6/5
 0=1)\\RESP charges\\-1,1\N,0,1.759125,1.692871,-0.461486\H,0,1.55647,1
 .496043,-1.439551\C,0,1.496785,0.477802,0.311827\H,0,1.504266,0.764195
 ,1.373193\C,0,0.19164,-0.245481,-0.002631\H,0,0.193667,-0.531033,-1.05
 9268\H,0,0.149582,-1.170398,0.580254\C,0,-1.03839,0.605375,0.297205\H,
 0,-1.046708,0.90699,1.347431\H,0,-1.011825,1.518078,-0.309037\C,0,-2.3
 5114,-0.113633,-0.029062\O,0,-2.420346,-0.707783,-1.136351\O,0,-3.2744
 21,-0.050806,0.821309\C,0,2.697033,-0.426642,0.171925\O,0,2.644909,-1.
 632131,0.099501\H,0,1.095598,2.40791,-0.181261\H,0,3.668368,0.099347,0
 .147389\\Version=ES64L-G09RevE.01\State=1-A\HF=-473.1757303\RMSD=6.643
 e-09\Dipole=5.1531543,2.5060963,0.4486692\Quadrupole=-24.6614128,10.86
 16062,13.7998066,-1.048413,0.7737476,-2.6046417\PG=C01 [X(C5H8N1O3)]\\
 @


 I WISH TO HAVE NO CONNECTION WITH ANY SHIP THAT DOES NOT SAIL FAST,
 FOR I INTEND TO GO IN HARM'S WAY.
     -- JOHN PAUL JONES, USN 1747-1792
 Job cpu time:       0 days  0 hours  0 minutes 35.7 seconds.
 File lengths (MBytes):  RWF=     40 Int=      0 D2E=      0 Chk=      8 Scr=      1
 Normal termination of Gaussian 09 at Mon Apr  3 11:23:44 2023.
