 Entering Gaussian System, Link 0=/software/sse/easybuild/prefix/software/Gaussian/09.E.01-avx-nsc1-bdist/g09/g09.orig
 Input=glu_opt.wrap
 Output=glu_opt.log
 Initial command:
 /software/sse/easybuild/prefix/software/Gaussian/09.E.01-avx-nsc1-bdist/g09/l1.exe "/scratch/local/Gau-46036.inp" -scrdir="/scratch/local/"
 Entering Link 1 = /software/sse/easybuild/prefix/software/Gaussian/09.E.01-avx-nsc1-bdist/g09/l1.exe PID=     46037.
  
 Copyright (c) 1988,1990,1992,1993,1995,1998,2003,2009,2015,
            Gaussian, Inc.  All Rights Reserved.
  
 This is part of the Gaussian(R) 09 program.  It is based on
 the Gaussian(R) 03 system (copyright 2003, Gaussian, Inc.),
 the Gaussian(R) 98 system (copyright 1998, Gaussian, Inc.),
 the Gaussian(R) 94 system (copyright 1995, Gaussian, Inc.),
 the Gaussian 92(TM) system (copyright 1992, Gaussian, Inc.),
 the Gaussian 90(TM) system (copyright 1990, Gaussian, Inc.),
 the Gaussian 88(TM) system (copyright 1988, Gaussian, Inc.),
 the Gaussian 86(TM) system (copyright 1986, Carnegie Mellon
 University), and the Gaussian 82(TM) system (copyright 1983,
 Carnegie Mellon University). Gaussian is a federally registered
 trademark of Gaussian, Inc.
  
 This software contains proprietary and confidential information,
 including trade secrets, belonging to Gaussian, Inc.
  
 This software is provided under written license and may be
 used, copied, transmitted, or stored only in accord with that
 written license.
  
 The following legend is applicable only to US Government
 contracts under FAR:
  
                    RESTRICTED RIGHTS LEGEND
  
 Use, reproduction and disclosure by the US Government is
 subject to restrictions as set forth in subparagraphs (a)
 and (c) of the Commercial Computer Software - Restricted
 Rights clause in FAR 52.227-19.
  
 Gaussian, Inc.
 340 Quinnipiac St., Bldg. 40, Wallingford CT 06492
  
  
 ---------------------------------------------------------------
 Warning -- This program may not be used in any manner that
 competes with the business of Gaussian, Inc. or will provide
 assistance to any competitor of Gaussian, Inc.  The licensee
 of this program is prohibited from giving any competitor of
 Gaussian, Inc. access to this program.  By using this program,
 the user acknowledges that Gaussian, Inc. is engaged in the
 business of creating and licensing software in the field of
 computational chemistry and represents and warrants to the
 licensee that it is not a competitor of Gaussian, Inc. and that
 it will not use this program in any manner prohibited above.
 ---------------------------------------------------------------
  

 Cite this work as:
 Gaussian 09, Revision E.01,
 M. J. Frisch, G. W. Trucks, H. B. Schlegel, G. E. Scuseria, 
 M. A. Robb, J. R. Cheeseman, G. Scalmani, V. Barone, B. Mennucci, 
 G. A. Petersson, H. Nakatsuji, M. Caricato, X. Li, H. P. Hratchian, 
 A. F. Izmaylov, J. Bloino, G. Zheng, J. L. Sonnenberg, M. Hada, 
 M. Ehara, K. Toyota, R. Fukuda, J. Hasegawa, M. Ishida, T. Nakajima, 
 Y. Honda, O. Kitao, H. Nakai, T. Vreven, J. A. Montgomery, Jr., 
 J. E. Peralta, F. Ogliaro, M. Bearpark, J. J. Heyd, E. Brothers, 
 K. N. Kudin, V. N. Staroverov, T. Keith, R. Kobayashi, J. Normand, 
 K. Raghavachari, A. Rendell, J. C. Burant, S. S. Iyengar, J. Tomasi, 
 M. Cossi, N. Rega, J. M. Millam, M. Klene, J. E. Knox, J. B. Cross, 
 V. Bakken, C. Adamo, J. Jaramillo, R. Gomperts, R. E. Stratmann, 
 O. Yazyev, A. J. Austin, R. Cammi, C. Pomelli, J. W. Ochterski, 
 R. L. Martin, K. Morokuma, V. G. Zakrzewski, G. A. Voth, 
 P. Salvador, J. J. Dannenberg, S. Dapprich, A. D. Daniels, 
 O. Farkas, J. B. Foresman, J. V. Ortiz, J. Cioslowski, 
 and D. J. Fox, Gaussian, Inc., Wallingford CT, 2013.
 
 ******************************************
 Gaussian 09:  ES64L-G09RevE.01 30-Nov-2015
                 3-Apr-2023 
 ******************************************
 %nproc=16
 Will use up to   16 processors via shared memory.
 %chk=glu_opt
 ----------------------------
 #M062X/6-311G** scrf=smd opt
 ----------------------------
 1/14=-1,18=20,19=15,26=3,38=1/1,3;
 2/9=110,12=2,17=6,18=5,40=1/2;
 3/5=4,6=6,7=101,11=2,16=1,25=1,30=1,70=32201,71=1,72=1,74=-55/1,2,3;
 4//1;
 5/5=2,38=5/2;
 6/7=2,8=2,9=2,10=2,28=1/1;
 7//1,2,3,16;
 1/14=-1,18=20,19=15,26=3/3(2);
 2/9=110/2;
 99//99;
 2/9=110/2;
 3/5=4,6=6,7=101,11=2,16=1,25=1,30=1,70=32205,71=1,74=-55/1,2,3;
 4/5=5,16=3,69=1/1;
 5/5=2,38=5/2;
 7//1,2,3,16;
 1/14=-1,18=20,19=15,26=3/3(-5);
 2/9=110/2;
 6/7=2,8=2,9=2,10=2,19=2,28=1/1;
 99/9=1/99;
 ---
 glu
 ---
 Symbolic Z-matrix:
 Charge = -1 Multiplicity = 1
 N                     14.332    25.913    9.221 
 H                     15.       26.52     8.79 
 C                     14.315    25.809    10.676 
 H                     13.488    25.285    10.878 
 C                     15.483    25.018    11.275 
 H                     16.306    25.583    11.208 
 H                     15.277    24.843    12.238 
 C                     15.802    23.69     10.64 
 H                     14.958    23.161    10.554 
 H                     16.189    23.85     9.732 
 C                     16.809    22.916    11.499 
 O                     18.033    23.18     11.59 
 O                     16.32     21.959    12.152 
 C                     14.266    27.216    11.255 
 O                     15.263    27.907    11.345 
 H                     14.49851   24.97556   8.85511 
 H                     13.36234   27.59388   11.58001 
 

 GradGradGradGradGradGradGradGradGradGradGradGradGradGradGradGradGradGrad
 Berny optimization.
 Initialization pass.
                           ----------------------------
                           !    Initial Parameters    !
                           ! (Angstroms and Degrees)  !
 --------------------------                            --------------------------
 ! Name  Definition              Value          Derivative Info.                !
 --------------------------------------------------------------------------------
 ! R1    R(1,2)                  1.0002         estimate D2E/DX2                !
 ! R2    R(1,3)                  1.4588         estimate D2E/DX2                !
 ! R3    R(1,16)                 1.02           estimate D2E/DX2                !
 ! R4    R(3,4)                  0.9997         estimate D2E/DX2                !
 ! R5    R(3,5)                  1.5325         estimate D2E/DX2                !
 ! R6    R(3,14)                 1.5223         estimate D2E/DX2                !
 ! R7    R(5,6)                  1.0005         estimate D2E/DX2                !
 ! R8    R(5,7)                  1.0002         estimate D2E/DX2                !
 ! R9    R(5,8)                  1.5062         estimate D2E/DX2                !
 ! R10   R(8,9)                  0.9998         estimate D2E/DX2                !
 ! R11   R(8,10)                 0.9999         estimate D2E/DX2                !
 ! R12   R(8,11)                 1.5333         estimate D2E/DX2                !
 ! R13   R(11,12)                1.2554         estimate D2E/DX2                !
 ! R14   R(11,13)                1.2575         estimate D2E/DX2                !
 ! R15   R(14,15)                1.2164         estimate D2E/DX2                !
 ! R16   R(14,17)                1.032          estimate D2E/DX2                !
 ! A1    A(2,1,3)              118.7395         estimate D2E/DX2                !
 ! A2    A(2,1,16)             107.1067         estimate D2E/DX2                !
 ! A3    A(3,1,16)             107.1072         estimate D2E/DX2                !
 ! A4    A(1,3,4)              104.3918         estimate D2E/DX2                !
 ! A5    A(1,3,5)              114.6923         estimate D2E/DX2                !
 ! A6    A(1,3,14)             108.291          estimate D2E/DX2                !
 ! A7    A(4,3,5)              106.3182         estimate D2E/DX2                !
 ! A8    A(4,3,14)             112.3958         estimate D2E/DX2                !
 ! A9    A(5,3,14)             110.6661         estimate D2E/DX2                !
 ! A10   A(3,5,6)              108.0151         estimate D2E/DX2                !
 ! A11   A(3,5,7)              108.0381         estimate D2E/DX2                !
 ! A12   A(3,5,8)              116.8534         estimate D2E/DX2                !
 ! A13   A(6,5,7)              109.4321         estimate D2E/DX2                !
 ! A14   A(6,5,8)              107.1848         estimate D2E/DX2                !
 ! A15   A(7,5,8)              107.1735         estimate D2E/DX2                !
 ! A16   A(5,8,9)              108.9045         estimate D2E/DX2                !
 ! A17   A(5,8,10)             108.8886         estimate D2E/DX2                !
 ! A18   A(5,8,11)             110.364          estimate D2E/DX2                !
 ! A19   A(9,8,10)             109.4679         estimate D2E/DX2                !
 ! A20   A(9,8,11)             109.6039         estimate D2E/DX2                !
 ! A21   A(10,8,11)            109.592          estimate D2E/DX2                !
 ! A22   A(8,11,12)            125.0828         estimate D2E/DX2                !
 ! A23   A(8,11,13)            114.8147         estimate D2E/DX2                !
 ! A24   A(12,11,13)           120.0997         estimate D2E/DX2                !
 ! A25   A(3,14,15)            121.791          estimate D2E/DX2                !
 ! A26   A(3,14,17)            119.1048         estimate D2E/DX2                !
 ! A27   A(15,14,17)           119.1043         estimate D2E/DX2                !
 ! D1    D(2,1,3,4)            170.7178         estimate D2E/DX2                !
 ! D2    D(2,1,3,5)            -73.3536         estimate D2E/DX2                !
 ! D3    D(2,1,3,14)            50.7775         estimate D2E/DX2                !
 ! D4    D(16,1,3,4)           -67.9643         estimate D2E/DX2                !
 ! D5    D(16,1,3,5)            47.9643         estimate D2E/DX2                !
 ! D6    D(16,1,3,14)          172.0955         estimate D2E/DX2                !
 ! D7    D(1,3,5,6)             73.47           estimate D2E/DX2                !
 ! D8    D(1,3,5,7)           -168.2469         estimate D2E/DX2                !
 ! D9    D(1,3,5,8)            -47.3868         estimate D2E/DX2                !
 ! D10   D(4,3,5,6)           -171.717          estimate D2E/DX2                !
 ! D11   D(4,3,5,7)            -53.4339         estimate D2E/DX2                !
 ! D12   D(4,3,5,8)             67.4262         estimate D2E/DX2                !
 ! D13   D(14,3,5,6)           -49.3916         estimate D2E/DX2                !
 ! D14   D(14,3,5,7)            68.8915         estimate D2E/DX2                !
 ! D15   D(14,3,5,8)          -170.2484         estimate D2E/DX2                !
 ! D16   D(1,3,14,15)          -79.8952         estimate D2E/DX2                !
 ! D17   D(1,3,14,17)          100.105          estimate D2E/DX2                !
 ! D18   D(4,3,14,15)          165.3115         estimate D2E/DX2                !
 ! D19   D(4,3,14,17)          -14.6883         estimate D2E/DX2                !
 ! D20   D(5,3,14,15)           46.6112         estimate D2E/DX2                !
 ! D21   D(5,3,14,17)         -133.3886         estimate D2E/DX2                !
 ! D22   D(3,5,8,9)            -49.3131         estimate D2E/DX2                !
 ! D23   D(3,5,8,10)            69.9951         estimate D2E/DX2                !
 ! D24   D(3,5,8,11)          -169.6713         estimate D2E/DX2                !
 ! D25   D(6,5,8,9)           -170.607          estimate D2E/DX2                !
 ! D26   D(6,5,8,10)           -51.2988         estimate D2E/DX2                !
 ! D27   D(6,5,8,11)            69.0348         estimate D2E/DX2                !
 ! D28   D(7,5,8,9)             72.002          estimate D2E/DX2                !
 ! D29   D(7,5,8,10)          -168.6898         estimate D2E/DX2                !
 ! D30   D(7,5,8,11)           -48.3563         estimate D2E/DX2                !
 ! D31   D(5,8,11,12)          -74.1537         estimate D2E/DX2                !
 ! D32   D(5,8,11,13)          105.2389         estimate D2E/DX2                !
 ! D33   D(9,8,11,12)          165.9087         estimate D2E/DX2                !
 ! D34   D(9,8,11,13)          -14.6988         estimate D2E/DX2                !
 ! D35   D(10,8,11,12)          45.7568         estimate D2E/DX2                !
 ! D36   D(10,8,11,13)        -134.8507         estimate D2E/DX2                !
 --------------------------------------------------------------------------------
 Trust Radius=3.00D-01 FncErr=1.00D-07 GrdErr=1.00D-06
 Number of steps in this run=     89 maximum allowed number of steps=    102.
 GradGradGradGradGradGradGradGradGradGradGradGradGradGradGradGradGradGrad

                          Input orientation:                          
 ---------------------------------------------------------------------
 Center     Atomic      Atomic             Coordinates (Angstroms)
 Number     Number       Type             X           Y           Z
 ---------------------------------------------------------------------
      1          7           0       14.332000   25.913000    9.221000
      2          1           0       15.000000   26.520000    8.790000
      3          6           0       14.315000   25.809000   10.676000
      4          1           0       13.488000   25.285000   10.878000
      5          6           0       15.483000   25.018000   11.275000
      6          1           0       16.306000   25.583000   11.208000
      7          1           0       15.277000   24.843000   12.238000
      8          6           0       15.802000   23.690000   10.640000
      9          1           0       14.958000   23.161000   10.554000
     10          1           0       16.189000   23.850000    9.732000
     11          6           0       16.809000   22.916000   11.499000
     12          8           0       18.033000   23.180000   11.590000
     13          8           0       16.320000   21.959000   12.152000
     14          6           0       14.266000   27.216000   11.255000
     15          8           0       15.263000   27.907000   11.345000
     16          1           0       14.498510   24.975560    8.855110
     17          1           0       13.362340   27.593880   11.580010
 ---------------------------------------------------------------------
                    Distance matrix (angstroms):
                    1          2          3          4          5
     1  N    0.000000
     2  H    1.000217   0.000000
     3  C    1.458811   2.128789   0.000000
     4  H    1.962745   2.858516   0.999654   0.000000
     5  C    2.518877   2.943555   1.532549   2.051566   0.000000
     6  H    2.820238   2.903503   2.073205   2.852863   1.000521
     7  H    3.337696   3.844185   2.073269   2.290302   1.000215
     8  C    3.019303   3.474853   2.588943   2.820508   1.506177
     9  H    3.121261   3.794251   2.727680   2.603316   2.060076
    10  H    2.822329   3.070828   2.870661   3.266182   2.059978
    11  C    4.506309   4.857981   3.907277   4.126360   2.495367
    12  O    5.174829   5.309867   4.644412   5.059150   3.159109
    13  O    5.308203   5.817918   4.584877   4.550338   3.290468
    14  C    2.416469   2.664469   1.522265   2.115697   2.512507
    15  O    3.058459   2.919069   2.397471   3.200562   2.898210
    16  H    1.019997   1.625124   2.010955   2.282316   2.612832
    17  H    3.054591   3.408710   2.215986   2.416513   3.350431
                    6          7          8          9         10
     6  H    0.000000
     7  H    1.633200   0.000000
     8  C    2.039630   2.039274   0.000000
     9  H    2.847965   2.401404   0.999786   0.000000
    10  H    2.279376   2.845668   0.999916   1.632717   0.000000
    11  C    2.729575   2.570306   1.533299   2.092666   2.092617
    12  O    2.983766   3.283445   2.477894   3.244886   2.702110
    13  O    3.744958   3.068013   2.356020   2.419391   3.073994
    14  C    2.613522   2.760351   3.894894   4.172923   4.165023
    15  O    2.550999   3.191511   4.309366   4.821122   4.463014
    16  H    3.028547   3.473840   2.556870   2.527842   2.212143
    17  H    3.584294   3.415584   4.698493   4.821748   5.042002
                   11         12         13         14         15
    11  C    0.000000
    12  O    1.255449   0.000000
    13  O    1.257529   2.177396   0.000000
    14  C    5.001638   5.530986   5.714856   0.000000
    15  O    5.227228   5.484292   6.094850   1.216384   0.000000
    16  H    4.070664   4.816252   4.825655   3.291368   3.921395
    17  H    5.811075   6.426313   6.389585   1.032001   1.940562
                   16         17
    16  H    0.000000
    17  H    3.946082   0.000000
 Stoichiometry    C5H8NO3(1-)
 Framework group  C1[X(C5H8NO3)]
 Deg. of freedom    45
 Full point group                 C1      NOp   1
 Largest Abelian subgroup         C1      NOp   1
 Largest concise Abelian subgroup C1      NOp   1
                         Standard orientation:                         
 ---------------------------------------------------------------------
 Center     Atomic      Atomic             Coordinates (Angstroms)
 Number     Number       Type             X           Y           Z
 ---------------------------------------------------------------------
      1          7           0        1.854504    1.467844   -0.628461
      2          1           0        2.140197    1.114647   -1.519565
      3          6           0        1.492928    0.519050    0.419004
      4          1           0        1.398307    1.080327    1.240786
      5          6           0        0.142589   -0.176313    0.214651
      6          1           0        0.248269   -0.847733   -0.519563
      7          1           0       -0.095055   -0.647180    1.064498
      8          6           0       -1.026260    0.701045   -0.149496
      9          1           0       -1.061564    1.473258    0.484549
     10          1           0       -0.898289    1.040501   -1.081283
     11          6           0       -2.335452   -0.092793   -0.066762
     12          8           0       -2.709439   -0.956359   -0.897749
     13          8           0       -3.049457    0.169720    0.934569
     14          6           0        2.611758   -0.505798    0.542275
     15          8           0        2.712406   -1.440592   -0.229490
     16          1           0        1.041478    2.062728   -0.788137
     17          1           0        3.303678   -0.404745    1.301262
 ---------------------------------------------------------------------
 Rotational constants (GHZ):      3.3462812      0.7345979      0.6812851
 Standard basis: 6-311G(d,p) (5D, 7F)
 There are   219 symmetry adapted cartesian basis functions of A   symmetry.
 There are   210 symmetry adapted basis functions of A   symmetry.
   210 basis functions,   352 primitive gaussians,   219 cartesian basis functions
    35 alpha electrons       35 beta electrons
       nuclear repulsion energy       436.9434993604 Hartrees.
 NAtoms=   17 NActive=   17 NUniq=   17 SFac= 1.00D+00 NAtFMM=   60 NAOKFM=F Big=F
 Integral buffers will be    131072 words long.
 Raffenetti 2 integral format.
 Two-electron integral symmetry is turned on.
 ------------------------------------------------------------------------------
 Polarizable Continuum Model (PCM)
 =================================
 Model                : PCM (using non-symmetric T matrix).
 Atomic radii         : SMD-Coulomb.
 Polarization charges : Total charges.
 Charge compensation  : None.
 Solution method      : On-the-fly selection.
 Cavity type          : VdW (van der Waals Surface) (Alpha=1.000).
 Cavity algorithm     : GePol (No added spheres)
                        Default sphere list used, NSphG=   17.
                        Lebedev-Laikov grids with approx.  5.0 points / Ang**2.
                        Smoothing algorithm: York/Karplus (Gamma=1.0000).
                        Polarization charges: spherical gaussians, with
                                              point-specific exponents (IZeta= 3).
                        Self-potential: point-specific (ISelfS= 7).
                        Self-field    : sphere-specific E.n sum rule (ISelfD= 2).
 1st derivatives      : Analytical E(r).r(x)/FMM algorithm (CHGder, D1EAlg=3).
                        Cavity 1st derivative terms included.
 Solvent              : Water, Eps=  78.355300 Eps(inf)=   1.777849
 ------------------------------------------------------------------------------
 Spheres list:
 ISph  on   Nord     Re0    Alpha      Xe            Ye            Ze
    1   N      1    1.8900  1.000      1.854504      1.467844     -0.628461
    2   H      2    1.2000  1.000      2.140197      1.114647     -1.519565
    3   C      3    1.8500  1.000      1.492928      0.519050      0.419004
    4   H      4    1.2000  1.000      1.398307      1.080327      1.240786
    5   C      5    1.8500  1.000      0.142589     -0.176313      0.214651
    6   H      6    1.2000  1.000      0.248269     -0.847733     -0.519563
    7   H      7    1.2000  1.000     -0.095055     -0.647180      1.064498
    8   C      8    1.8500  1.000     -1.026260      0.701045     -0.149496
    9   H      9    1.2000  1.000     -1.061564      1.473258      0.484549
   10   H     10    1.2000  1.000     -0.898289      1.040501     -1.081283
   11   C     11    1.8500  1.000     -2.335452     -0.092793     -0.066762
   12   O     12    1.5200  1.000     -2.709439     -0.956359     -0.897749
   13   O     13    1.5200  1.000     -3.049457      0.169720      0.934569
   14   C     14    1.8500  1.000      2.611758     -0.505798      0.542275
   15   O     15    1.5200  1.000      2.712406     -1.440592     -0.229490
   16   H     16    1.2000  1.000      1.041478      2.062728     -0.788137
   17   H     17    1.2000  1.000      3.303678     -0.404745      1.301262
 ------------------------------------------------------------------------------
 ------------------------------------------------------------------------------
 Atomic radii for non-electrostatic terms: SMD-CDS.
 ------------------------------------------------------------------------------
 Nuclear repulsion after PCM non-electrostatic terms =      436.9510191656 Hartrees.
 One-electron integrals computed using PRISM.
 NBasis=   210 RedAO= T EigKep=  1.23D-03  NBF=   210
 NBsUse=   210 1.00D-06 EigRej= -1.00D+00 NBFU=   210
 ExpMin= 1.03D-01 ExpMax= 8.59D+03 ExpMxC= 1.30D+03 IAcc=1 IRadAn=         1 AccDes= 0.00D+00
 Harris functional with IExCor= 1009 and IRadAn=       1 diagonalized for initial guess.
 HarFok:  IExCor= 1009 AccDes= 0.00D+00 IRadAn=         1 IDoV= 1 UseB2=F ITyADJ=14
 ICtDFT=  3500011 ScaDFX=  1.000000  1.000000  1.000000  1.000000
 FoFCou: FMM=F IPFlag=           0 FMFlag=      100000 FMFlg1=           0
         NFxFlg=           0 DoJE=T BraDBF=F KetDBF=T FulRan=T
         wScrn=  0.000000 ICntrl=     500 IOpCl=  0 I1Cent=   200000004 NGrid=           0
         NMat0=    1 NMatS0=      1 NMatT0=    0 NMatD0=    1 NMtDS0=    0 NMtDT0=    0
 Petite list used in FoFCou.
 Requested convergence on RMS density matrix=1.00D-08 within 128 cycles.
 Requested convergence on MAX density matrix=1.00D-06.
 Requested convergence on             energy=1.00D-06.
 No special actions if energy rises.
 Inv3:  Mode=1 IEnd=     5000043.
 Iteration    1 A*A^-1 deviation from unit magnitude is 4.88D-15 for   1278.
 Iteration    1 A*A^-1 deviation from orthogonality  is 4.86D-15 for   1286    748.
 Iteration    1 A^-1*A deviation from unit magnitude is 4.88D-15 for   1278.
 Iteration    1 A^-1*A deviation from orthogonality  is 7.92D-13 for   1283   1203.
 Error on total polarization charges =  0.04136
 SCF Done:  E(RM062X) =  -475.816904699     A.U. after   14 cycles
            NFock= 14  Conv=0.52D-08     -V/T= 2.0011
 SMD-CDS (non-electrostatic) energy       (kcal/mol) =       4.72
 (included in total energy above)

 **********************************************************************

            Population analysis using the SCF density.

 **********************************************************************

 Orbital symmetries:
       Occupied  (A) (A) (A) (A) (A) (A) (A) (A) (A) (A) (A) (A)
                 (A) (A) (A) (A) (A) (A) (A) (A) (A) (A) (A) (A)
                 (A) (A) (A) (A) (A) (A) (A) (A) (A) (A) (A)
       Virtual   (A) (A) (A) (A) (A) (A) (A) (A) (A) (A) (A) (A)
                 (A) (A) (A) (A) (A) (A) (A) (A) (A) (A) (A) (A)
                 (A) (A) (A) (A) (A) (A) (A) (A) (A) (A) (A) (A)
                 (A) (A) (A) (A) (A) (A) (A) (A) (A) (A) (A) (A)
                 (A) (A) (A) (A) (A) (A) (A) (A) (A) (A) (A) (A)
                 (A) (A) (A) (A) (A) (A) (A) (A) (A) (A) (A) (A)
                 (A) (A) (A) (A) (A) (A) (A) (A) (A) (A) (A) (A)
                 (A) (A) (A) (A) (A) (A) (A) (A) (A) (A) (A) (A)
                 (A) (A) (A) (A) (A) (A) (A) (A) (A) (A) (A) (A)
                 (A) (A) (A) (A) (A) (A) (A) (A) (A) (A) (A) (A)
                 (A) (A) (A) (A) (A) (A) (A) (A) (A) (A) (A) (A)
                 (A) (A) (A) (A) (A) (A) (A) (A) (A) (A) (A) (A)
                 (A) (A) (A) (A) (A) (A) (A) (A) (A) (A) (A) (A)
                 (A) (A) (A) (A) (A) (A) (A) (A) (A) (A) (A) (A)
                 (A) (A) (A) (A) (A) (A) (A)
 The electronic state is 1-A.
 Alpha  occ. eigenvalues --  -19.62984 -19.54349 -19.53627 -14.71500 -10.62718
 Alpha  occ. eigenvalues --  -10.61394 -10.55553 -10.50092 -10.49768  -1.18039
 Alpha  occ. eigenvalues --   -1.14322  -1.03521  -0.99452  -0.88165  -0.80573
 Alpha  occ. eigenvalues --   -0.72398  -0.65927  -0.60595  -0.58439  -0.54741
 Alpha  occ. eigenvalues --   -0.54320  -0.52296  -0.50984  -0.48791  -0.47847
 Alpha  occ. eigenvalues --   -0.46348  -0.45338  -0.44510  -0.40799  -0.40387
 Alpha  occ. eigenvalues --   -0.33904  -0.31245  -0.31069  -0.29817  -0.29578
 Alpha virt. eigenvalues --    0.00894   0.09156   0.11613   0.11840   0.13668
 Alpha virt. eigenvalues --    0.14159   0.16116   0.18340   0.18902   0.19519
 Alpha virt. eigenvalues --    0.24789   0.25691   0.27066   0.30989   0.32092
 Alpha virt. eigenvalues --    0.32591   0.36649   0.38030   0.39434   0.42037
 Alpha virt. eigenvalues --    0.44149   0.45651   0.47532   0.49727   0.52304
 Alpha virt. eigenvalues --    0.53749   0.57920   0.58320   0.61324   0.62255
 Alpha virt. eigenvalues --    0.64247   0.65177   0.66082   0.66306   0.67513
 Alpha virt. eigenvalues --    0.69614   0.69730   0.71285   0.71521   0.71858
 Alpha virt. eigenvalues --    0.73865   0.74032   0.75807   0.79676   0.81493
 Alpha virt. eigenvalues --    0.83950   0.85222   0.89024   0.89897   0.91105
 Alpha virt. eigenvalues --    0.92670   0.95479   0.97540   1.00578   1.01859
 Alpha virt. eigenvalues --    1.03430   1.04285   1.05832   1.12675   1.15317
 Alpha virt. eigenvalues --    1.21962   1.28627   1.32163   1.33383   1.36694
 Alpha virt. eigenvalues --    1.39802   1.44009   1.45875   1.49951   1.51223
 Alpha virt. eigenvalues --    1.51541   1.53840   1.56329   1.59971   1.60588
 Alpha virt. eigenvalues --    1.63575   1.65463   1.67455   1.68706   1.70696
 Alpha virt. eigenvalues --    1.72355   1.75589   1.77794   1.79673   1.80438
 Alpha virt. eigenvalues --    1.84469   1.87360   1.87897   1.90490   1.92513
 Alpha virt. eigenvalues --    1.93445   1.96469   1.97105   2.03269   2.05949
 Alpha virt. eigenvalues --    2.10054   2.14066   2.15534   2.19683   2.21534
 Alpha virt. eigenvalues --    2.25684   2.32960   2.37318   2.42999   2.44627
 Alpha virt. eigenvalues --    2.50595   2.52446   2.55597   2.58931   2.61390
 Alpha virt. eigenvalues --    2.63529   2.66809   2.67781   2.70781   2.72411
 Alpha virt. eigenvalues --    2.76355   2.78571   2.79541   2.82995   2.86182
 Alpha virt. eigenvalues --    2.86695   2.91457   2.92114   2.94283   2.95487
 Alpha virt. eigenvalues --    2.97642   2.98715   3.00364   3.01644   3.03620
 Alpha virt. eigenvalues --    3.04047   3.09019   3.10302   3.17951   3.24546
 Alpha virt. eigenvalues --    3.27103   3.35707   3.38115   3.39558   3.42605
 Alpha virt. eigenvalues --    3.43380   3.49957   3.57178   3.59675   3.63724
 Alpha virt. eigenvalues --    3.73221   3.90590   4.01062   4.06979   4.10185
 Alpha virt. eigenvalues --    4.12885   4.24931   4.28225   4.29455   4.42964
 Alpha virt. eigenvalues --    4.82177   4.98969   4.99567   5.03589   5.09296
 Alpha virt. eigenvalues --    5.10059   5.12339   5.24149   5.56960   5.66614
 Alpha virt. eigenvalues --    5.85530  23.88663  23.94553  23.98740  24.13367
 Alpha virt. eigenvalues --   24.16902  35.69370  50.04677  50.05178  50.18165
          Condensed to atoms (all electrons):
               1          2          3          4          5          6
     1  N    6.655857   0.374455   0.284220  -0.035812  -0.088224   0.003781
     2  H    0.374455   0.446380  -0.052505   0.008588   0.002455   0.003984
     3  C    0.284220  -0.052505   5.365885   0.395363   0.268821  -0.051518
     4  H   -0.035812   0.008588   0.395363   0.509672  -0.054320   0.010454
     5  C   -0.088224   0.002455   0.268821  -0.054320   5.256094   0.401500
     6  H    0.003781   0.003984  -0.051518   0.010454   0.401500   0.547750
     7  H    0.007401   0.000018  -0.047866  -0.002440   0.402129  -0.022842
     8  C   -0.002159  -0.001737  -0.035397  -0.004172   0.237681  -0.060428
     9  H   -0.001228   0.000039  -0.002760   0.002413  -0.042058   0.009893
    10  H    0.011829   0.001519  -0.015086   0.000611  -0.039076  -0.005389
    11  C    0.000830   0.000051   0.001364  -0.000069  -0.031074  -0.000169
    12  O   -0.000005  -0.000008   0.000002  -0.000012   0.009196   0.010558
    13  O    0.000000   0.000001  -0.000714  -0.000128  -0.001806   0.000321
    14  C   -0.036620  -0.006419   0.290600  -0.027995  -0.046562  -0.010627
    15  O   -0.001490   0.006383  -0.104383   0.004800   0.001139   0.021535
    16  H    0.385182  -0.035864  -0.038573  -0.010302  -0.007123  -0.002352
    17  H    0.003876   0.001305  -0.084889   0.002736   0.007920   0.002149
               7          8          9         10         11         12
     1  N    0.007401  -0.002159  -0.001228   0.011829   0.000830  -0.000005
     2  H    0.000018  -0.001737   0.000039   0.001519   0.000051  -0.000008
     3  C   -0.047866  -0.035397  -0.002760  -0.015086   0.001364   0.000002
     4  H   -0.002440  -0.004172   0.002413   0.000611  -0.000069  -0.000012
     5  C    0.402129   0.237681  -0.042058  -0.039076  -0.031074   0.009196
     6  H   -0.022842  -0.060428   0.009893  -0.005389  -0.000169   0.010558
     7  H    0.540701  -0.054192  -0.003370   0.014004   0.001085  -0.001227
     8  C   -0.054192   5.572098   0.374455   0.362216   0.222003  -0.134683
     9  H   -0.003370   0.374455   0.539300  -0.025739  -0.027239   0.007145
    10  H    0.014004   0.362216  -0.025739   0.544867  -0.015306   0.008150
    11  C    0.001085   0.222003  -0.027239  -0.015306   4.357550   0.592361
    12  O   -0.001227  -0.134683   0.007145   0.008150   0.592361   8.278366
    13  O    0.008334  -0.154444   0.017438   0.005872   0.589650  -0.130567
    14  C   -0.003607   0.006598  -0.000003  -0.000247  -0.000157   0.000005
    15  O   -0.000519  -0.000080  -0.000024  -0.000080   0.000009  -0.000000
    16  H   -0.000328   0.006031  -0.000723  -0.000599  -0.000027  -0.000050
    17  H   -0.000345  -0.000323  -0.000033  -0.000048   0.000010  -0.000000
              13         14         15         16         17
     1  N    0.000000  -0.036620  -0.001490   0.385182   0.003876
     2  H    0.000001  -0.006419   0.006383  -0.035864   0.001305
     3  C   -0.000714   0.290600  -0.104383  -0.038573  -0.084889
     4  H   -0.000128  -0.027995   0.004800  -0.010302   0.002736
     5  C   -0.001806  -0.046562   0.001139  -0.007123   0.007920
     6  H    0.000321  -0.010627   0.021535  -0.002352   0.002149
     7  H    0.008334  -0.003607  -0.000519  -0.000328  -0.000345
     8  C   -0.154444   0.006598  -0.000080   0.006031  -0.000323
     9  H    0.017438  -0.000003  -0.000024  -0.000723  -0.000033
    10  H    0.005872  -0.000247  -0.000080  -0.000599  -0.000048
    11  C    0.589650  -0.000157   0.000009  -0.000027   0.000010
    12  O   -0.130567   0.000005  -0.000000  -0.000050  -0.000000
    13  O    8.304247   0.000000  -0.000000  -0.000028  -0.000000
    14  C    0.000000   4.592346   0.556703   0.006899   0.429273
    15  O   -0.000000   0.556703   7.967080  -0.000615  -0.045406
    16  H   -0.000028   0.006899  -0.000615   0.451040  -0.000742
    17  H   -0.000000   0.429273  -0.045406  -0.000742   0.525985
 Mulliken charges:
               1
     1  N   -0.561893
     2  H    0.251355
     3  C   -0.172565
     4  H    0.200615
     5  C   -0.276693
     6  H    0.141400
     7  H    0.163062
     8  C   -0.333466
     9  H    0.152496
    10  H    0.152501
    11  C    0.309128
    12  O   -0.639231
    13  O   -0.638176
    14  C    0.249813
    15  O   -0.405051
    16  H    0.248173
    17  H    0.158533
 Sum of Mulliken charges =  -1.00000
 Mulliken charges with hydrogens summed into heavy atoms:
               1
     1  N   -0.062365
     3  C    0.028050
     5  C    0.027769
     8  C   -0.028469
    11  C    0.309128
    12  O   -0.639231
    13  O   -0.638176
    14  C    0.408346
    15  O   -0.405051
 Electronic spatial extent (au):  <R**2>=           1653.4148
 Charge=             -1.0000 electrons
 Dipole moment (field-independent basis, Debye):
    X=             13.5937    Y=              4.8805    Z=              1.0553  Tot=             14.4818
 Quadrupole moment (field-independent basis, Debye-Ang):
   XX=           -107.9787   YY=            -63.0736   ZZ=            -56.1748
   XY=             -4.3222   XZ=              6.6295   YZ=             -6.7610
 Traceless Quadrupole moment (field-independent basis, Debye-Ang):
   XX=            -32.2364   YY=             12.6688   ZZ=             19.5676
   XY=             -4.3222   XZ=              6.6295   YZ=             -6.7610
 Octapole moment (field-independent basis, Debye-Ang**2):
  XXX=            140.2090  YYY=              6.4866  ZZZ=             -3.6114  XYY=            -10.1345
  XXY=             25.4732  XXZ=              2.4038  XZZ=             30.3399  YZZ=              4.8619
  YYZ=              3.5444  XYZ=              6.4903
 Hexadecapole moment (field-independent basis, Debye-Ang**3):
 XXXX=          -2063.6806 YYYY=           -325.7832 ZZZZ=           -174.3132 XXXY=            -39.7978
 XXXZ=             80.6063 YYYX=            -13.8668 YYYZ=             -8.1828 ZZZX=             -3.3719
 ZZZY=            -10.4565 XXYY=           -404.7598 XXZZ=           -323.7981 YYZZ=            -78.4992
 XXYZ=            -43.1331 YYXZ=             -3.0480 ZZXY=             -4.3243
 N-N= 4.369510191656D+02 E-N=-2.002554963768D+03  KE= 4.752954158500D+02
 D1PCM: PCM CHGder 1st derivatives, ID1Alg=3 FixD1E=F DoIter=F DoCFld=F I1PDM=0.
 Calling FoFJK, ICntrl=      2127 FMM=F ISym2X=0 I1Cent= 0 IOpClX= 0 NMat=1 NMatS=1 NMatT=0.
 ***** Axes restored to original set *****
 -------------------------------------------------------------------
 Center     Atomic                   Forces (Hartrees/Bohr)
 Number     Number              X              Y              Z
 -------------------------------------------------------------------
      1        7          -0.017768059   -0.012791525   -0.012093346
      2        1           0.014958524    0.008498282    0.006658009
      3        6           0.068728996    0.028109651   -0.020424566
      4        1          -0.069289286   -0.032407855    0.021512453
      5        6          -0.032704350   -0.010288956   -0.052799234
      6        1           0.064746142    0.046304710   -0.001019798
      7        1          -0.016438470   -0.009456295    0.078399144
      8        6           0.038445285    0.024932692    0.059177069
      9        1          -0.062506284   -0.046845961   -0.005270316
     10        1           0.031636275    0.011210253   -0.072412464
     11        6          -0.001107193   -0.022002400    0.015018390
     12        8           0.000653506    0.023227279   -0.016710981
     13        8          -0.014846701   -0.007080639    0.003453905
     14        6           0.050097992   -0.018404568   -0.013405369
     15        8          -0.005043387   -0.005753488   -0.002810825
     16        1          -0.001850015    0.005463886   -0.001490707
     17        1          -0.047712974    0.017284934    0.014218636
 -------------------------------------------------------------------
 Cartesian Forces:  Max     0.078399144 RMS     0.033088914

 GradGradGradGradGradGradGradGradGradGradGradGradGradGradGradGradGradGrad
 Berny optimization.
 FormGI is forming the generalized inverse of G from B-inverse, IUseBI=4.
 Internal  Forces:  Max     0.080514683 RMS     0.022211565
 Search for a local minimum.
 Step number   1 out of a maximum of   89
 All quantities printed in internal units (Hartrees-Bohrs-Radians)
 Mixed Optimization -- RFO/linear search
 Second derivative matrix not updated -- first step.
 ITU=  0
     Eigenvalues ---    0.00325   0.00326   0.00335   0.00471   0.00471
     Eigenvalues ---    0.00684   0.00914   0.03391   0.03694   0.04254
     Eigenvalues ---    0.04499   0.04928   0.05121   0.05660   0.06646
     Eigenvalues ---    0.08856   0.08976   0.12522   0.12640   0.16000
     Eigenvalues ---    0.16000   0.16000   0.17893   0.18520   0.22000
     Eigenvalues ---    0.22008   0.22124   0.25000   0.25000   0.29121
     Eigenvalues ---    0.29189   0.30149   0.31738   0.37114   0.42477
     Eigenvalues ---    0.44338   0.47597   0.47650   0.47651   0.47703
     Eigenvalues ---    0.47726   0.47749   0.80516   0.81255   0.97003
 RFO step:  Lambda=-7.79833292D-02 EMin= 3.25464743D-03
 Linear search not attempted -- first point.
 Maximum step size (   0.300) exceeded in Quadratic search.
    -- Step size scaled by   0.747
 Iteration  1 RMS(Cart)=  0.04881449 RMS(Int)=  0.00123383
 Iteration  2 RMS(Cart)=  0.00128891 RMS(Int)=  0.00011324
 Iteration  3 RMS(Cart)=  0.00000076 RMS(Int)=  0.00011324
 Variable       Old X    -DE/DX   Delta X   Delta X   Delta X     New X
                                 (Linear)    (Quad)   (Total)
    R1        1.89014   0.01224   0.00000   0.01648   0.01648   1.90662
    R2        2.75675   0.00691   0.00000   0.01149   0.01149   2.76824
    R3        1.92752  -0.00478   0.00000  -0.00685  -0.00685   1.92066
    R4        1.88907   0.07867   0.00000   0.10579   0.10579   1.99487
    R5        2.89610   0.00394   0.00000   0.00796   0.00796   2.90406
    R6        2.87666  -0.00703   0.00000  -0.01383  -0.01383   2.86283
    R7        1.89071   0.07949   0.00000   0.10719   0.10719   1.99790
    R8        1.89013   0.08051   0.00000   0.10847   0.10847   1.99860
    R9        2.84626   0.02002   0.00000   0.03783   0.03783   2.88409
   R10        1.88932   0.07800   0.00000   0.10494   0.10494   1.99427
   R11        1.88957   0.07980   0.00000   0.10740   0.10740   1.99697
   R12        2.89752  -0.00610   0.00000  -0.01234  -0.01234   2.88517
   R13        2.37246   0.00434   0.00000   0.00364   0.00364   2.37609
   R14        2.37639   0.01293   0.00000   0.01093   0.01093   2.38732
   R15        2.29863  -0.00761   0.00000  -0.00542  -0.00542   2.29321
   R16        1.95020   0.05259   0.00000   0.07813   0.07813   2.02833
    A1        2.07239  -0.02318   0.00000  -0.07524  -0.07523   1.99716
    A2        1.86936   0.00408   0.00000   0.00806   0.00807   1.87744
    A3        1.86937   0.00907   0.00000   0.02553   0.02554   1.89491
    A4        1.82198   0.00278   0.00000   0.01752   0.01707   1.83906
    A5        2.00176   0.00279   0.00000   0.00955   0.00932   2.01108
    A6        1.89003  -0.00369   0.00000  -0.01572  -0.01569   1.87434
    A7        1.85560   0.00352   0.00000   0.02109   0.02080   1.87640
    A8        1.96168  -0.00423   0.00000  -0.02448  -0.02434   1.93733
    A9        1.93149  -0.00102   0.00000  -0.00712  -0.00705   1.92444
   A10        1.88522   0.00475   0.00000   0.01073   0.01098   1.89620
   A11        1.88562   0.00331   0.00000   0.00359   0.00375   1.88937
   A12        2.03948  -0.01818   0.00000  -0.04530  -0.04515   1.99432
   A13        1.90995  -0.00425   0.00000  -0.01074  -0.01102   1.89893
   A14        1.87073   0.00720   0.00000   0.02181   0.02178   1.89250
   A15        1.87053   0.00736   0.00000   0.02045   0.02023   1.89076
   A16        1.90074   0.00588   0.00000   0.02120   0.02107   1.92181
   A17        1.90046   0.00213   0.00000   0.00769   0.00759   1.90806
   A18        1.92622  -0.00575   0.00000  -0.01509  -0.01505   1.91116
   A19        1.91058  -0.00090   0.00000   0.00006  -0.00013   1.91044
   A20        1.91295  -0.00241   0.00000  -0.01342  -0.01330   1.89964
   A21        1.91274   0.00112   0.00000  -0.00011  -0.00007   1.91267
   A22        2.18311  -0.03637   0.00000  -0.08287  -0.08291   2.10020
   A23        2.00389   0.00555   0.00000   0.01261   0.01257   2.01647
   A24        2.09614   0.03080   0.00000   0.07012   0.07008   2.16622
   A25        2.12565  -0.00203   0.00000  -0.00509  -0.00513   2.12053
   A26        2.07877  -0.00195   0.00000  -0.00675  -0.00679   2.07198
   A27        2.07876   0.00398   0.00000   0.01184   0.01180   2.09056
    D1        2.97959  -0.00151   0.00000  -0.00276  -0.00287   2.97672
    D2       -1.28026   0.00594   0.00000   0.03882   0.03891  -1.24136
    D3        0.88623   0.00371   0.00000   0.02402   0.02406   0.91029
    D4       -1.18620  -0.00463   0.00000  -0.02303  -0.02315  -1.20935
    D5        0.83714   0.00282   0.00000   0.01854   0.01863   0.85576
    D6        3.00363   0.00060   0.00000   0.00375   0.00378   3.00741
    D7        1.28229  -0.00355   0.00000  -0.02013  -0.02020   1.26210
    D8       -2.93646  -0.00419   0.00000  -0.02505  -0.02520  -2.96166
    D9       -0.82706  -0.00433   0.00000  -0.02628  -0.02632  -0.85338
   D10       -2.99703   0.00360   0.00000   0.01996   0.02008  -2.97695
   D11       -0.93260   0.00296   0.00000   0.01505   0.01508  -0.91752
   D12        1.17681   0.00282   0.00000   0.01381   0.01395   1.19076
   D13       -0.86205   0.00007   0.00000  -0.00071  -0.00070  -0.86275
   D14        1.20238  -0.00057   0.00000  -0.00563  -0.00571   1.19668
   D15       -2.97140  -0.00071   0.00000  -0.00687  -0.00683  -2.97822
   D16       -1.39443   0.00040   0.00000   0.00861   0.00863  -1.38580
   D17        1.74716  -0.00143   0.00000  -0.00789  -0.00787   1.73929
   D18        2.88523   0.00160   0.00000   0.01043   0.01038   2.89561
   D19       -0.25636  -0.00023   0.00000  -0.00607  -0.00612  -0.26248
   D20        0.81352   0.00062   0.00000   0.00462   0.00465   0.81816
   D21       -2.32807  -0.00121   0.00000  -0.01188  -0.01185  -2.33992
   D22       -0.86068  -0.00189   0.00000  -0.00933  -0.00942  -0.87010
   D23        1.22165   0.00171   0.00000   0.00764   0.00771   1.22935
   D24       -2.96132   0.00090   0.00000   0.00309   0.00312  -2.95820
   D25       -2.97765  -0.00153   0.00000  -0.01002  -0.00996  -2.98762
   D26       -0.89533   0.00206   0.00000   0.00695   0.00717  -0.88817
   D27        1.20488   0.00126   0.00000   0.00240   0.00259   1.20747
   D28        1.25667  -0.00399   0.00000  -0.01901  -0.01926   1.23741
   D29       -2.94419  -0.00039   0.00000  -0.00204  -0.00213  -2.94633
   D30       -0.84398  -0.00120   0.00000  -0.00659  -0.00671  -0.85069
   D31       -1.29423   0.00162   0.00000   0.01034   0.01038  -1.28385
   D32        1.83677   0.00000   0.00000  -0.00458  -0.00455   1.83222
   D33        2.89565  -0.00053   0.00000   0.00206   0.00202   2.89767
   D34       -0.25654  -0.00215   0.00000  -0.01286  -0.01290  -0.26944
   D35        0.79861   0.00138   0.00000   0.01035   0.01036   0.80896
   D36       -2.35359  -0.00024   0.00000  -0.00457  -0.00456  -2.35815
         Item               Value     Threshold  Converged?
 Maximum Force            0.080515     0.000450     NO 
 RMS     Force            0.022212     0.000300     NO 
 Maximum Displacement     0.156418     0.001800     NO 
 RMS     Displacement     0.048985     0.001200     NO 
 Predicted change in Energy=-4.028771D-02
 GradGradGradGradGradGradGradGradGradGradGradGradGradGradGradGradGradGrad

                          Input orientation:                          
 ---------------------------------------------------------------------
 Center     Atomic      Atomic             Coordinates (Angstroms)
 Number     Number       Type             X           Y           Z
 ---------------------------------------------------------------------
      1          7           0       14.351358   25.905586    9.218267
      2          1           0       15.062524   26.523941    8.857938
      3          6           0       14.326443   25.796886   10.678906
      4          1           0       13.444841   25.261929   10.904672
      5          6           0       15.504634   25.029221   11.298743
      6          1           0       16.373333   25.627464   11.226422
      7          1           0       15.290066   24.861997   12.320773
      8          6           0       15.790558   23.681774   10.641545
      9          1           0       14.900563   23.120102   10.563235
     10          1           0       16.192206   23.841274    9.677202
     11          6           0       16.792104   22.902812   11.490748
     12          8           0       18.003812   23.238002   11.510777
     13          8           0       16.309126   21.950543   12.165937
     14          6           0       14.265522   27.204076   11.236731
     15          8           0       15.257250   27.899223   11.313287
     16          1           0       14.520797   24.982617    8.827845
     17          1           0       13.316711   27.591993   11.555094
 ---------------------------------------------------------------------
                    Distance matrix (angstroms):
                    1          2          3          4          5
     1  N    0.000000
     2  H    1.008940   0.000000
     3  C    1.464890   2.094362   0.000000
     4  H    2.019908   2.898050   1.055637   0.000000
     5  C    2.535043   2.896063   1.536764   2.110021   0.000000
     6  H    2.863289   2.851597   2.125614   2.968704   1.057243
     7  H    3.405260   3.847735   2.120923   2.360115   1.057614
     8  C    3.007051   3.433541   2.572689   2.840513   1.526196
     9  H    3.141574   3.810564   2.740104   2.612112   2.133216
    10  H    2.803699   3.023918   2.882516   3.327605   2.124469
    11  C    4.487545   4.799553   3.887703   4.136796   2.493203
    12  O    5.070703   5.146467   4.556637   5.024725   3.082096
    13  O    5.306974   5.780385   4.575658   4.556335   3.298104
    14  C    2.401592   2.599318   1.514946   2.134412   2.503845
    15  O    3.030567   2.821003   2.385091   3.226005   2.880680
    16  H    1.016371   1.634030   2.031560   2.355612   2.659971
    17  H    3.061899   3.385742   2.238230   2.422533   3.379426
                    6          7          8          9         10
     6  H    0.000000
     7  H    1.719596   0.000000
     8  C    2.113626   2.112635   0.000000
     9  H    2.982572   2.504965   1.055320   0.000000
    10  H    2.371363   2.973920   1.056749   1.724380   0.000000
    11  C    2.769290   2.604509   1.526768   2.117882   2.128271
    12  O    2.906690   3.264640   2.418882   3.246828   2.647234
    13  O    3.795597   3.088531   2.364285   2.433222   3.127672
    14  C    2.632238   2.776720   3.884146   4.187567   4.177640
    15  O    2.532602   3.200132   4.303781   4.850752   4.474132
    16  H    3.098530   3.578669   2.567877   2.573862   2.194921
    17  H    3.648333   3.454457   4.716387   4.846667   5.085552
                   11         12         13         14         15
    11  C    0.000000
    12  O    1.257374   0.000000
    13  O    1.263315   2.226825   0.000000
    14  C    4.994899   5.457074   5.713086   0.000000
    15  O    5.229855   5.413832   6.100839   1.213513   0.000000
    16  H    4.071299   4.730031   4.851232   3.286758   3.902098
    17  H    5.837030   6.397509   6.415110   1.073348   1.979533
                   16         17
    16  H    0.000000
    17  H    3.961888   0.000000
 Stoichiometry    C5H8NO3(1-)
 Framework group  C1[X(C5H8NO3)]
 Deg. of freedom    45
 Full point group                 C1      NOp   1
 Largest Abelian subgroup         C1      NOp   1
 Largest concise Abelian subgroup C1      NOp   1
                         Standard orientation:                         
 ---------------------------------------------------------------------
 Center     Atomic      Atomic             Coordinates (Angstroms)
 Number     Number       Type             X           Y           Z
 ---------------------------------------------------------------------
      1          7           0        1.829048    1.456975   -0.649029
      2          1           0        2.095135    1.016667   -1.516950
      3          6           0        1.468370    0.521665    0.419152
      4          1           0        1.380105    1.111914    1.289891
      5          6           0        0.133779   -0.214364    0.222254
      6          1           0        0.253329   -0.931493   -0.545338
      7          1           0       -0.104189   -0.715400    1.122744
      8          6           0       -1.035781    0.694887   -0.144716
      9          1           0       -1.085051    1.510267    0.523436
     10          1           0       -0.903641    1.054298   -1.129643
     11          6           0       -2.340636   -0.093073   -0.058139
     12          8           0       -2.626875   -0.945960   -0.936570
     13          8           0       -3.061891    0.156759    0.948508
     14          6           0        2.602306   -0.474263    0.550986
     15          8           0        2.718899   -1.407452   -0.215943
     16          1           0        1.028970    2.053832   -0.840461
     17          1           0        3.322710   -0.334797    1.334340
 ---------------------------------------------------------------------
 Rotational constants (GHZ):      3.3438276      0.7400438      0.6906505
 Standard basis: 6-311G(d,p) (5D, 7F)
 There are   219 symmetry adapted cartesian basis functions of A   symmetry.
 There are   210 symmetry adapted basis functions of A   symmetry.
   210 basis functions,   352 primitive gaussians,   219 cartesian basis functions
    35 alpha electrons       35 beta electrons
       nuclear repulsion energy       435.9663569296 Hartrees.
 NAtoms=   17 NActive=   17 NUniq=   17 SFac= 1.00D+00 NAtFMM=   60 NAOKFM=F Big=F
 Integral buffers will be    131072 words long.
 Raffenetti 2 integral format.
 Two-electron integral symmetry is turned on.
 ------------------------------------------------------------------------------
 Polarizable Continuum Model (PCM)
 =================================
 Model                : PCM (using non-symmetric T matrix).
 Atomic radii         : SMD-Coulomb.
 Polarization charges : Total charges.
 Charge compensation  : None.
 Solution method      : On-the-fly selection.
 Cavity type          : VdW (van der Waals Surface) (Alpha=1.000).
 Cavity algorithm     : GePol (No added spheres)
                        Default sphere list used, NSphG=   17.
                        Lebedev-Laikov grids with approx.  5.0 points / Ang**2.
                        Smoothing algorithm: York/Karplus (Gamma=1.0000).
                        Polarization charges: spherical gaussians, with
                                              point-specific exponents (IZeta= 3).
                        Self-potential: point-specific (ISelfS= 7).
                        Self-field    : sphere-specific E.n sum rule (ISelfD= 2).
 1st derivatives      : Analytical E(r).r(x)/FMM algorithm (CHGder, D1EAlg=3).
                        Cavity 1st derivative terms included.
 Solvent              : Water, Eps=  78.355300 Eps(inf)=   1.777849
 ------------------------------------------------------------------------------
 Spheres list:
 ISph  on   Nord     Re0    Alpha      Xe            Ye            Ze
    1   N      1    1.8900  1.000      1.829048      1.456975     -0.649029
    2   H      2    1.2000  1.000      2.095135      1.016667     -1.516950
    3   C      3    1.8500  1.000      1.468370      0.521665      0.419152
    4   H      4    1.2000  1.000      1.380105      1.111914      1.289891
    5   C      5    1.8500  1.000      0.133779     -0.214364      0.222254
    6   H      6    1.2000  1.000      0.253329     -0.931493     -0.545338
    7   H      7    1.2000  1.000     -0.104189     -0.715400      1.122744
    8   C      8    1.8500  1.000     -1.035781      0.694887     -0.144716
    9   H      9    1.2000  1.000     -1.085051      1.510267      0.523436
   10   H     10    1.2000  1.000     -0.903641      1.054298     -1.129643
   11   C     11    1.8500  1.000     -2.340636     -0.093073     -0.058139
   12   O     12    1.5200  1.000     -2.626875     -0.945960     -0.936570
   13   O     13    1.5200  1.000     -3.061891      0.156759      0.948508
   14   C     14    1.8500  1.000      2.602306     -0.474263      0.550986
   15   O     15    1.5200  1.000      2.718899     -1.407452     -0.215943
   16   H     16    1.2000  1.000      1.028970      2.053832     -0.840461
   17   H     17    1.2000  1.000      3.322710     -0.334797      1.334340
 ------------------------------------------------------------------------------
 ------------------------------------------------------------------------------
 Atomic radii for non-electrostatic terms: SMD-CDS.
 ------------------------------------------------------------------------------
 Nuclear repulsion after PCM non-electrostatic terms =      435.9738241510 Hartrees.
 One-electron integrals computed using PRISM.
 NBasis=   210 RedAO= T EigKep=  1.32D-03  NBF=   210
 NBsUse=   210 1.00D-06 EigRej= -1.00D+00 NBFU=   210
 Initial guess from the checkpoint file:  "glu_opt.chk"
 B after Tr=    -0.000000    0.000000   -0.000000
         Rot=    0.999992    0.001664    0.001759   -0.003108 Ang=   0.45 deg.
 ExpMin= 1.03D-01 ExpMax= 8.59D+03 ExpMxC= 1.30D+03 IAcc=1 IRadAn=         1 AccDes= 0.00D+00
 Harris functional with IExCor= 1009 and IRadAn=       1 diagonalized for initial guess.
 HarFok:  IExCor= 1009 AccDes= 0.00D+00 IRadAn=         1 IDoV= 1 UseB2=F ITyADJ=14
 ICtDFT=  3500011 ScaDFX=  1.000000  1.000000  1.000000  1.000000
 FoFCou: FMM=F IPFlag=           0 FMFlag=      100000 FMFlg1=           0
         NFxFlg=           0 DoJE=T BraDBF=F KetDBF=T FulRan=T
         wScrn=  0.000000 ICntrl=     500 IOpCl=  0 I1Cent=   200000004 NGrid=           0
         NMat0=    1 NMatS0=      1 NMatT0=    0 NMatD0=    1 NMtDS0=    0 NMtDT0=    0
 Petite list used in FoFCou.
 Requested convergence on RMS density matrix=1.00D-08 within 128 cycles.
 Requested convergence on MAX density matrix=1.00D-06.
 Requested convergence on             energy=1.00D-06.
 No special actions if energy rises.
 Inv3:  Mode=1 IEnd=     4945968.
 Iteration    1 A*A^-1 deviation from unit magnitude is 3.77D-15 for   1254.
 Iteration    1 A*A^-1 deviation from orthogonality  is 4.03D-15 for    841    367.
 Iteration    1 A^-1*A deviation from unit magnitude is 3.77D-15 for   1254.
 Iteration    1 A^-1*A deviation from orthogonality  is 3.84D-08 for    902    843.
 Iteration    2 A*A^-1 deviation from unit magnitude is 2.66D-15 for     66.
 Iteration    2 A*A^-1 deviation from orthogonality  is 2.39D-15 for   1262    130.
 Iteration    2 A^-1*A deviation from unit magnitude is 7.77D-16 for    499.
 Iteration    2 A^-1*A deviation from orthogonality  is 4.14D-16 for   1253     91.
 Error on total polarization charges =  0.04235
 SCF Done:  E(RM062X) =  -475.855524976     A.U. after   13 cycles
            NFock= 13  Conv=0.35D-08     -V/T= 2.0024
 SMD-CDS (non-electrostatic) energy       (kcal/mol) =       4.69
 (included in total energy above)
 D1PCM: PCM CHGder 1st derivatives, ID1Alg=3 FixD1E=F DoIter=F DoCFld=F I1PDM=0.
 Calling FoFJK, ICntrl=      2127 FMM=F ISym2X=0 I1Cent= 0 IOpClX= 0 NMat=1 NMatS=1 NMatT=0.
 ***** Axes restored to original set *****
 -------------------------------------------------------------------
 Center     Atomic                   Forces (Hartrees/Bohr)
 Number     Number              X              Y              Z
 -------------------------------------------------------------------
      1        7          -0.010768578   -0.001524952   -0.005917662
      2        1           0.008531860    0.001998693    0.005316460
      3        6           0.026637243    0.001794821   -0.009772274
      4        1          -0.023936933   -0.008420145    0.009500177
      5        6          -0.010448212   -0.003532487   -0.020299445
      6        1           0.021591163    0.014887443    0.000364157
      7        1          -0.004996084   -0.001996000    0.026657375
      8        6           0.013203584    0.011938229    0.019338546
      9        1          -0.021805848   -0.014784193   -0.002058929
     10        1           0.010075372    0.003211569   -0.023931576
     11        6          -0.002684110   -0.012936015    0.008180277
     12        8          -0.003396689    0.006964533   -0.005444597
     13        8           0.000945642    0.001612617   -0.000454600
     14        6           0.019437576   -0.004701358   -0.004411452
     15        8          -0.004212735   -0.002694332   -0.001081503
     16        1          -0.000500161    0.002155206   -0.000410060
     17        1          -0.017673090    0.006026369    0.004425106
 -------------------------------------------------------------------
 Cartesian Forces:  Max     0.026657375 RMS     0.011706681

 GradGradGradGradGradGradGradGradGradGradGradGradGradGradGradGradGradGrad
 Berny optimization.
 Using GEDIIS/GDIIS optimizer.
 FormGI is forming the generalized inverse of G from B-inverse, IUseBI=4.
 Internal  Forces:  Max     0.027085666 RMS     0.007723895
 Search for a local minimum.
 Step number   2 out of a maximum of   89
 All quantities printed in internal units (Hartrees-Bohrs-Radians)
 Mixed Optimization -- RFO/linear search
 Update second derivatives using D2CorX and points    1    2
 DE= -3.86D-02 DEPred=-4.03D-02 R= 9.59D-01
 TightC=F SS=  1.41D+00  RLast= 3.12D-01 DXNew= 5.0454D-01 9.3488D-01
 Trust test= 9.59D-01 RLast= 3.12D-01 DXMaxT set to 5.05D-01
 ITU=  1  0
 Use linear search instead of GDIIS.
     Eigenvalues ---    0.00325   0.00329   0.00335   0.00471   0.00473
     Eigenvalues ---    0.00684   0.00914   0.03592   0.04006   0.04326
     Eigenvalues ---    0.04581   0.04968   0.05032   0.05637   0.06753
     Eigenvalues ---    0.08590   0.08810   0.12366   0.12450   0.15822
     Eigenvalues ---    0.16000   0.16013   0.17732   0.18438   0.21968
     Eigenvalues ---    0.21988   0.22116   0.24607   0.25707   0.29148
     Eigenvalues ---    0.29211   0.30173   0.31915   0.37132   0.42418
     Eigenvalues ---    0.44335   0.47520   0.47618   0.47669   0.47709
     Eigenvalues ---    0.47740   0.49095   0.80901   0.81453   0.96962
 RFO step:  Lambda=-6.39061595D-03 EMin= 3.25464335D-03
 Quartic linear search produced a step of  0.66320.
 Iteration  1 RMS(Cart)=  0.09723573 RMS(Int)=  0.00807957
 Iteration  2 RMS(Cart)=  0.00779378 RMS(Int)=  0.00119566
 Iteration  3 RMS(Cart)=  0.00009752 RMS(Int)=  0.00119102
 Iteration  4 RMS(Cart)=  0.00000030 RMS(Int)=  0.00119102
 Variable       Old X    -DE/DX   Delta X   Delta X   Delta X     New X
                                 (Linear)    (Quad)   (Total)
    R1        1.90662   0.00532   0.01093   0.00348   0.01442   1.92104
    R2        2.76824   0.00114   0.00762  -0.00541   0.00221   2.77045
    R3        1.92066  -0.00188  -0.00455  -0.00079  -0.00533   1.91533
    R4        1.99487   0.02630   0.07016  -0.00469   0.06547   2.06033
    R5        2.90406   0.00019   0.00528  -0.00622  -0.00094   2.90313
    R6        2.86283  -0.00157  -0.00917   0.00421  -0.00496   2.85787
    R7        1.99790   0.02615   0.07109  -0.00619   0.06490   2.06280
    R8        1.99860   0.02709   0.07194  -0.00421   0.06773   2.06633
    R9        2.88409   0.00473   0.02509  -0.01027   0.01482   2.89892
   R10        1.99427   0.02641   0.06960  -0.00352   0.06608   2.06035
   R11        1.99697   0.02616   0.07123  -0.00653   0.06470   2.06167
   R12        2.88517   0.00012  -0.00819   0.01199   0.00381   2.88898
   R13        2.37609  -0.00149   0.00241  -0.00622  -0.00381   2.37229
   R14        2.38732  -0.00184   0.00725  -0.01341  -0.00616   2.38116
   R15        2.29321  -0.00506  -0.00360  -0.00382  -0.00741   2.28579
   R16        2.02833   0.01912   0.05182   0.00319   0.05501   2.08334
    A1        1.99716  -0.01386  -0.04989  -0.08637  -0.13837   1.85879
    A2        1.87744   0.00242   0.00535  -0.02332  -0.02280   1.85464
    A3        1.89491   0.00369   0.01694  -0.01035   0.00460   1.89951
    A4        1.83906   0.00261   0.01132   0.04871   0.05702   1.89607
    A5        2.01108   0.00113   0.00618   0.00819   0.01280   2.02388
    A6        1.87434  -0.00357  -0.01041  -0.03561  -0.04577   1.82857
    A7        1.87640   0.00132   0.01379   0.03056   0.04231   1.91871
    A8        1.93733  -0.00320  -0.01614  -0.05502  -0.07006   1.86728
    A9        1.92444   0.00155  -0.00468   0.00150  -0.00285   1.92159
   A10        1.89620   0.00216   0.00728   0.00916   0.01690   1.91310
   A11        1.88937   0.00140   0.00249  -0.00346  -0.00084   1.88853
   A12        1.99432  -0.00696  -0.02995  -0.00670  -0.03643   1.95789
   A13        1.89893  -0.00204  -0.00731  -0.01143  -0.01908   1.87985
   A14        1.89250   0.00282   0.01444   0.01112   0.02565   1.91816
   A15        1.89076   0.00269   0.01342   0.00066   0.01367   1.90443
   A16        1.92181   0.00118   0.01397  -0.00380   0.01009   1.93190
   A17        1.90806   0.00097   0.00504  -0.00008   0.00479   1.91285
   A18        1.91116  -0.00205  -0.00998  -0.00123  -0.01120   1.89996
   A19        1.91044  -0.00049  -0.00009  -0.00232  -0.00255   1.90789
   A20        1.89964   0.00046  -0.00882   0.01750   0.00879   1.90844
   A21        1.91267  -0.00007  -0.00005  -0.01009  -0.01012   1.90255
   A22        2.10020  -0.01513  -0.05499  -0.02215  -0.07986   2.02033
   A23        2.01647   0.00801   0.00834   0.03921   0.04483   2.06130
   A24        2.16622   0.00709   0.04648  -0.01990   0.02382   2.19003
   A25        2.12053   0.00080  -0.00340   0.01018   0.00412   2.12465
   A26        2.07198  -0.00185  -0.00450  -0.01144  -0.01861   2.05337
   A27        2.09056   0.00104   0.00782  -0.00050   0.00463   2.09519
    D1        2.97672   0.00004  -0.00190   0.10364   0.09918   3.07589
    D2       -1.24136   0.00411   0.02580   0.17952   0.20455  -1.03681
    D3        0.91029   0.00414   0.01595   0.15967   0.17479   1.08509
    D4       -1.20935  -0.00325  -0.01535   0.01005  -0.00509  -1.21444
    D5        0.85576   0.00081   0.01235   0.08593   0.10029   0.95605
    D6        3.00741   0.00085   0.00250   0.06608   0.07053   3.07794
    D7        1.26210  -0.00269  -0.01339  -0.11087  -0.12464   1.13745
    D8       -2.96166  -0.00315  -0.01671  -0.12135  -0.13856  -3.10022
    D9       -0.85338  -0.00325  -0.01746  -0.12738  -0.14509  -0.99847
   D10       -2.97695   0.00217   0.01332  -0.02371  -0.01004  -2.98698
   D11       -0.91752   0.00171   0.01000  -0.03419  -0.02395  -0.94147
   D12        1.19076   0.00161   0.00925  -0.04021  -0.03049   1.16027
   D13       -0.86275   0.00000  -0.00047  -0.07089  -0.07134  -0.93409
   D14        1.19668  -0.00045  -0.00378  -0.08137  -0.08525   1.11143
   D15       -2.97822  -0.00056  -0.00453  -0.08740  -0.09179  -3.07002
   D16       -1.38580   0.00033   0.00572   0.06742   0.07355  -1.31226
   D17        1.73929  -0.00075  -0.00522  -0.05672  -0.06130   1.67799
   D18        2.89561   0.00092   0.00688   0.05825   0.06434   2.95995
   D19       -0.26248  -0.00016  -0.00406  -0.06590  -0.07051  -0.33299
   D20        0.81816   0.00031   0.00308   0.05418   0.05730   0.87546
   D21       -2.33992  -0.00077  -0.00786  -0.06996  -0.07755  -2.41748
   D22       -0.87010  -0.00018  -0.00625  -0.01381  -0.02016  -0.89026
   D23        1.22935   0.00055   0.00511  -0.01907  -0.01392   1.21543
   D24       -2.95820  -0.00019   0.00207  -0.03222  -0.03015  -2.98835
   D25       -2.98762  -0.00039  -0.00661  -0.02923  -0.03570  -3.02332
   D26       -0.88817   0.00034   0.00475  -0.03449  -0.02946  -0.91763
   D27        1.20747  -0.00040   0.00172  -0.04764  -0.04569   1.16178
   D28        1.23741  -0.00100  -0.01277  -0.02213  -0.03517   1.20223
   D29       -2.94633  -0.00027  -0.00141  -0.02739  -0.02893  -2.97526
   D30       -0.85069  -0.00102  -0.00445  -0.04054  -0.04516  -0.89585
   D31       -1.28385   0.00069   0.00688   0.06944   0.07616  -1.20769
   D32        1.83222  -0.00022  -0.00301  -0.04895  -0.05185   1.78037
   D33        2.89767   0.00021   0.00134   0.06413   0.06529   2.96297
   D34       -0.26944  -0.00070  -0.00856  -0.05426  -0.06271  -0.33216
   D35        0.80896   0.00058   0.00687   0.06239   0.06917   0.87814
   D36       -2.35815  -0.00033  -0.00303  -0.05600  -0.05883  -2.41698
         Item               Value     Threshold  Converged?
 Maximum Force            0.027086     0.000450     NO 
 RMS     Force            0.007724     0.000300     NO 
 Maximum Displacement     0.351350     0.001800     NO 
 RMS     Displacement     0.096053     0.001200     NO 
 Predicted change in Energy=-7.493752D-03
 GradGradGradGradGradGradGradGradGradGradGradGradGradGradGradGradGradGrad

                          Input orientation:                          
 ---------------------------------------------------------------------
 Center     Atomic      Atomic             Coordinates (Angstroms)
 Number     Number       Type             X           Y           Z
 ---------------------------------------------------------------------
      1          7           0       14.403204   25.980150    9.213882
      2          1           0       15.248451   26.515459    9.033844
      3          6           0       14.343057   25.772018   10.663847
      4          1           0       13.412264   25.257403   10.903655
      5          6           0       15.531207   25.022358   11.285479
      6          1           0       16.438168   25.620316   11.178590
      7          1           0       15.336942   24.901011   12.354674
      8          6           0       15.739174   23.640486   10.652663
      9          1           0       14.806473   23.075910   10.645195
     10          1           0       16.098624   23.757032    9.629206
     11          6           0       16.786348   22.877766   11.464364
     12          8           0       17.960489   23.315416   11.388289
     13          8           0       16.386036   21.993602   12.267945
     14          6           0       14.242423   27.162856   11.249129
     15          8           0       15.198693   27.901702   11.301685
     16          1           0       14.533019   25.083400    8.759715
     17          1           0       13.237278   27.542555   11.495957
 ---------------------------------------------------------------------
                    Distance matrix (angstroms):
                    1          2          3          4          5
     1  N    0.000000
     2  H    1.016568   0.000000
     3  C    1.466061   2.007325   0.000000
     4  H    2.087980   2.906971   1.090281   0.000000
     5  C    2.545835   2.716461   1.536268   2.165862   0.000000
     6  H    2.851427   2.610870   2.162744   3.059966   1.091584
     7  H    3.449780   3.693533   2.146009   2.436567   1.093454
     8  C    3.054331   3.335694   2.548077   2.844631   1.534040
     9  H    3.262805   3.823911   2.735709   2.601833   2.173445
    10  H    2.826518   2.947231   2.865775   3.330445   2.160151
    11  C    4.513184   4.637387   3.871330   4.166715   2.491315
    12  O    4.948043   4.810284   4.432327   4.969158   2.970796
    13  O    5.399213   5.674566   4.585120   4.621364   3.296868
    14  C    2.359422   2.517678   1.512320   2.106957   2.498803
    15  O    2.946877   2.658430   2.382122   3.215910   2.898526
    16  H    1.013548   1.624125   2.033716   2.425458   2.716540
    17  H    3.001393   3.340920   2.247210   2.367142   3.414353
                    6          7          8          9         10
     6  H    0.000000
     7  H    1.764446   0.000000
     8  C    2.164468   2.155819   0.000000
     9  H    3.069355   2.556308   1.090290   0.000000
    10  H    2.446980   3.052380   1.090986   1.779273   0.000000
    11  C    2.779294   2.643285   1.528782   2.151791   2.147993
    12  O    2.770198   3.214189   2.362426   3.249210   2.599218
    13  O    3.787145   3.092111   2.395787   2.509926   3.186728
    14  C    2.684343   2.745203   3.873387   4.169654   4.203483
    15  O    2.599264   3.183087   4.344113   4.886010   4.559096
    16  H    3.125512   3.688264   2.668345   2.767640   2.228539
    17  H    3.747188   3.481915   4.711345   4.810102   5.099240
                   11         12         13         14         15
    11  C    0.000000
    12  O    1.255361   0.000000
    13  O    1.260056   2.236043   0.000000
    14  C    4.987973   5.352211   5.688079   0.000000
    15  O    5.271342   5.354348   6.103204   1.209590   0.000000
    16  H    4.154207   4.667196   5.028738   3.256649   3.853253
    17  H    5.861497   6.339480   6.426626   1.102458   2.003466
                   16         17
    16  H    0.000000
    17  H    3.900437   0.000000
 Stoichiometry    C5H8NO3(1-)
 Framework group  C1[X(C5H8NO3)]
 Deg. of freedom    45
 Full point group                 C1      NOp   1
 Largest Abelian subgroup         C1      NOp   1
 Largest concise Abelian subgroup C1      NOp   1
                         Standard orientation:                         
 ---------------------------------------------------------------------
 Center     Atomic      Atomic             Coordinates (Angstroms)
 Number     Number       Type             X           Y           Z
 ---------------------------------------------------------------------
      1          7           0        1.864181    1.424554   -0.626581
      2          1           0        1.959680    0.864897   -1.469834
      3          6           0        1.434237    0.508799    0.434492
      4          1           0        1.385450    1.061428    1.373072
      5          6           0        0.108214   -0.227660    0.190754
      6          1           0        0.214321   -0.900815   -0.661982
      7          1           0       -0.110338   -0.838138    1.071205
      8          6           0       -1.056444    0.741181   -0.050488
      9          1           0       -1.099644    1.495022    0.736016
     10          1           0       -0.928910    1.233583   -1.015644
     11          6           0       -2.363688   -0.051337   -0.064714
     12          8           0       -2.527656   -0.815553   -1.047067
     13          8           0       -3.089630   -0.017395    0.964653
     14          6           0        2.565031   -0.486727    0.566183
     15          8           0        2.738261   -1.364155   -0.248200
     16          1           0        1.119204    2.087247   -0.808591
     17          1           0        3.319073   -0.303819    1.349367
 ---------------------------------------------------------------------
 Rotational constants (GHZ):      3.3961646      0.7400520      0.7005201
 Standard basis: 6-311G(d,p) (5D, 7F)
 There are   219 symmetry adapted cartesian basis functions of A   symmetry.
 There are   210 symmetry adapted basis functions of A   symmetry.
   210 basis functions,   352 primitive gaussians,   219 cartesian basis functions
    35 alpha electrons       35 beta electrons
       nuclear repulsion energy       436.3275455135 Hartrees.
 NAtoms=   17 NActive=   17 NUniq=   17 SFac= 1.00D+00 NAtFMM=   60 NAOKFM=F Big=F
 Integral buffers will be    131072 words long.
 Raffenetti 2 integral format.
 Two-electron integral symmetry is turned on.
 ------------------------------------------------------------------------------
 Polarizable Continuum Model (PCM)
 =================================
 Model                : PCM (using non-symmetric T matrix).
 Atomic radii         : SMD-Coulomb.
 Polarization charges : Total charges.
 Charge compensation  : None.
 Solution method      : On-the-fly selection.
 Cavity type          : VdW (van der Waals Surface) (Alpha=1.000).
 Cavity algorithm     : GePol (No added spheres)
                        Default sphere list used, NSphG=   17.
                        Lebedev-Laikov grids with approx.  5.0 points / Ang**2.
                        Smoothing algorithm: York/Karplus (Gamma=1.0000).
                        Polarization charges: spherical gaussians, with
                                              point-specific exponents (IZeta= 3).
                        Self-potential: point-specific (ISelfS= 7).
                        Self-field    : sphere-specific E.n sum rule (ISelfD= 2).
 1st derivatives      : Analytical E(r).r(x)/FMM algorithm (CHGder, D1EAlg=3).
                        Cavity 1st derivative terms included.
 Solvent              : Water, Eps=  78.355300 Eps(inf)=   1.777849
 ------------------------------------------------------------------------------
 Spheres list:
 ISph  on   Nord     Re0    Alpha      Xe            Ye            Ze
    1   N      1    1.8900  1.000      1.864181      1.424554     -0.626581
    2   H      2    1.2000  1.000      1.959680      0.864897     -1.469834
    3   C      3    1.8500  1.000      1.434237      0.508799      0.434492
    4   H      4    1.2000  1.000      1.385450      1.061428      1.373072
    5   C      5    1.8500  1.000      0.108214     -0.227660      0.190754
    6   H      6    1.2000  1.000      0.214321     -0.900815     -0.661982
    7   H      7    1.2000  1.000     -0.110338     -0.838138      1.071205
    8   C      8    1.8500  1.000     -1.056444      0.741181     -0.050488
    9   H      9    1.2000  1.000     -1.099644      1.495022      0.736016
   10   H     10    1.2000  1.000     -0.928910      1.233583     -1.015644
   11   C     11    1.8500  1.000     -2.363688     -0.051337     -0.064714
   12   O     12    1.5200  1.000     -2.527656     -0.815553     -1.047067
   13   O     13    1.5200  1.000     -3.089630     -0.017395      0.964653
   14   C     14    1.8500  1.000      2.565031     -0.486727      0.566183
   15   O     15    1.5200  1.000      2.738261     -1.364155     -0.248200
   16   H     16    1.2000  1.000      1.119204      2.087247     -0.808591
   17   H     17    1.2000  1.000      3.319073     -0.303819      1.349367
 ------------------------------------------------------------------------------
 ------------------------------------------------------------------------------
 Atomic radii for non-electrostatic terms: SMD-CDS.
 ------------------------------------------------------------------------------
 Nuclear repulsion after PCM non-electrostatic terms =      436.3348777518 Hartrees.
 One-electron integrals computed using PRISM.
 NBasis=   210 RedAO= T EigKep=  1.39D-03  NBF=   210
 NBsUse=   210 1.00D-06 EigRej= -1.00D+00 NBFU=   210
 Initial guess from the checkpoint file:  "glu_opt.chk"
 B after Tr=     0.000000   -0.000000    0.000000
         Rot=    0.999521   -0.030700    0.003514   -0.001486 Ang=  -3.55 deg.
 ExpMin= 1.03D-01 ExpMax= 8.59D+03 ExpMxC= 1.30D+03 IAcc=1 IRadAn=         1 AccDes= 0.00D+00
 Harris functional with IExCor= 1009 and IRadAn=       1 diagonalized for initial guess.
 HarFok:  IExCor= 1009 AccDes= 0.00D+00 IRadAn=         1 IDoV= 1 UseB2=F ITyADJ=14
 ICtDFT=  3500011 ScaDFX=  1.000000  1.000000  1.000000  1.000000
 FoFCou: FMM=F IPFlag=           0 FMFlag=      100000 FMFlg1=           0
         NFxFlg=           0 DoJE=T BraDBF=F KetDBF=T FulRan=T
         wScrn=  0.000000 ICntrl=     500 IOpCl=  0 I1Cent=   200000004 NGrid=           0
         NMat0=    1 NMatS0=      1 NMatT0=    0 NMatD0=    1 NMtDS0=    0 NMtDT0=    0
 Petite list used in FoFCou.
 Requested convergence on RMS density matrix=1.00D-08 within 128 cycles.
 Requested convergence on MAX density matrix=1.00D-06.
 Requested convergence on             energy=1.00D-06.
 No special actions if energy rises.
 Inv3:  Mode=1 IEnd=     5116908.
 Iteration    1 A*A^-1 deviation from unit magnitude is 3.44D-15 for   1284.
 Iteration    1 A*A^-1 deviation from orthogonality  is 2.91D-15 for    676    565.
 Iteration    1 A^-1*A deviation from unit magnitude is 4.22D-15 for   1284.
 Iteration    1 A^-1*A deviation from orthogonality  is 4.75D-12 for   1305    812.
 Error on total polarization charges =  0.04316
 SCF Done:  E(RM062X) =  -475.862913712     A.U. after   13 cycles
            NFock= 13  Conv=0.84D-08     -V/T= 2.0030
 SMD-CDS (non-electrostatic) energy       (kcal/mol) =       4.60
 (included in total energy above)
 D1PCM: PCM CHGder 1st derivatives, ID1Alg=3 FixD1E=F DoIter=F DoCFld=F I1PDM=0.
 Calling FoFJK, ICntrl=      2127 FMM=F ISym2X=0 I1Cent= 0 IOpClX= 0 NMat=1 NMatS=1 NMatT=0.
 ***** Axes restored to original set *****
 -------------------------------------------------------------------
 Center     Atomic                   Forces (Hartrees/Bohr)
 Number     Number              X              Y              Z
 -------------------------------------------------------------------
      1        7          -0.000518259    0.004063461    0.001722375
      2        1           0.001934971   -0.000439751   -0.002168190
      3        6           0.003388975   -0.002705581    0.007790855
      4        1          -0.000049804   -0.003155021   -0.001006868
      5        6          -0.005196826   -0.002505678   -0.004190346
      6        1           0.000691777    0.000410511   -0.000709055
      7        1           0.000136714   -0.000061902    0.001757511
      8        6           0.001241729   -0.003233914   -0.000435030
      9        1          -0.002286818    0.000541316   -0.000414293
     10        1          -0.000449401    0.000034148   -0.001513991
     11        6          -0.005640866    0.011130081    0.014044434
     12        8           0.006933504   -0.004334719   -0.003639868
     13        8           0.001295284   -0.002157421   -0.006967048
     14        6          -0.002140735    0.006651872   -0.011981038
     15        8           0.001180871   -0.000662655    0.004794539
     16        1          -0.000523442   -0.002229785   -0.000902408
     17        1           0.000002326   -0.001344963    0.003818423
 -------------------------------------------------------------------
 Cartesian Forces:  Max     0.014044434 RMS     0.004251683

 GradGradGradGradGradGradGradGradGradGradGradGradGradGradGradGradGradGrad
 Berny optimization.
 Using GEDIIS/GDIIS optimizer.
 FormGI is forming the generalized inverse of G from B-inverse, IUseBI=4.
 Internal  Forces:  Max     0.005381501 RMS     0.002093307
 Search for a local minimum.
 Step number   3 out of a maximum of   89
 All quantities printed in internal units (Hartrees-Bohrs-Radians)
 Mixed Optimization -- RFO/linear search
 Update second derivatives using D2CorX and points    2    3
 DE= -7.39D-03 DEPred=-7.49D-03 R= 9.86D-01
 TightC=F SS=  1.41D+00  RLast= 5.55D-01 DXNew= 8.4853D-01 1.6638D+00
 Trust test= 9.86D-01 RLast= 5.55D-01 DXMaxT set to 8.49D-01
 ITU=  1  1  0
 Use linear search instead of GDIIS.
     Eigenvalues ---    0.00322   0.00325   0.00470   0.00473   0.00590
[...]
 ! D19   D(4,3,14,17)          -76.3423         -DE/DX =    0.0                 !
 ! D20   D(5,3,14,15)          -14.6591         -DE/DX =    0.0                 !
 ! D21   D(5,3,14,17)          165.8721         -DE/DX =    0.0                 !
 ! D22   D(3,5,8,9)            -58.1028         -DE/DX =    0.0                 !
 ! D23   D(3,5,8,10)            60.2632         -DE/DX =    0.0                 !
 ! D24   D(3,5,8,11)           179.4981         -DE/DX =    0.0                 !
 ! D25   D(6,5,8,9)           -179.3597         -DE/DX =    0.0                 !
 ! D26   D(6,5,8,10)           -60.9937         -DE/DX =    0.0                 !
 ! D27   D(6,5,8,11)            58.2412         -DE/DX =    0.0                 !
 ! D28   D(7,5,8,9)             63.3289         -DE/DX =    0.0                 !
 ! D29   D(7,5,8,10)          -178.3051         -DE/DX =    0.0                 !
 ! D30   D(7,5,8,11)           -59.0702         -DE/DX =    0.0                 !
 ! D31   D(5,8,11,12)          -46.1304         -DE/DX =    0.0                 !
 ! D32   D(5,8,11,13)          134.6201         -DE/DX =    0.0                 !
 ! D33   D(9,8,11,12)         -169.2541         -DE/DX =    0.0                 !
 ! D34   D(9,8,11,13)           11.4964         -DE/DX =    0.0                 !
 ! D35   D(10,8,11,12)          74.5789         -DE/DX =    0.0                 !
 ! D36   D(10,8,11,13)        -104.6706         -DE/DX =    0.0                 !
 --------------------------------------------------------------------------------
 GradGradGradGradGradGradGradGradGradGradGradGradGradGradGradGradGradGrad

                          Input orientation:                          
 ---------------------------------------------------------------------
 Center     Atomic      Atomic             Coordinates (Angstroms)
 Number     Number       Type             X           Y           Z
 ---------------------------------------------------------------------
      1          7           0       14.430813   25.976662    9.190002
      2          1           0       15.367052   26.273249    8.921835
      3          6           0       14.398319   25.831530   10.646405
      4          1           0       13.466012   25.305358   10.896445
      5          6           0       15.575245   25.089169   11.270241
      6          1           0       16.498662   25.621191   11.020682
      7          1           0       15.473614   25.115023   12.359278
      8          6           0       15.672979   23.641659   10.799080
      9          1           0       14.752062   23.101687   11.032231
     10          1           0       15.805151   23.616293    9.711353
     11          6           0       16.861495   22.896320   11.414412
     12          8           0       17.971341   23.489716   11.418525
     13          8           0       16.653805   21.739643   11.859932
     14          6           0       14.210612   27.205139   11.243189
     15          8           0       14.724476   27.585176   12.269191
     16          1           0       14.299852   25.063062    8.767797
     17          1           0       13.540361   27.868563   10.667523
 ---------------------------------------------------------------------
                    Distance matrix (angstroms):
                    1          2          3          4          5
     1  N    0.000000
     2  H    1.018048   0.000000
     3  C    1.463977   2.026747   0.000000
     4  H    2.072061   2.906863   1.099352   0.000000
     5  C    2.534712   2.638257   1.524934   2.152980   0.000000
     6  H    2.784556   2.472020   2.143774   3.051582   1.094544
     7  H    3.445891   3.628892   2.145594   2.491300   1.094074
     8  C    3.095860   3.246984   2.538425   2.765515   1.525396
     9  H    3.429648   3.858858   2.779575   2.555098   2.164339
    10  H    2.780640   2.806187   2.785817   3.119127   2.156932
    11  C    4.510513   4.455329   3.908008   4.195362   2.546333
    12  O    4.866883   4.556736   4.341284   4.885398   2.884704
    13  O    5.479284   5.553533   4.827360   4.879001   3.567962
    14  C    2.402752   2.755804   1.509366   2.069742   2.517991
    15  O    3.486397   3.652239   2.411449   2.943763   2.819886
    16  H    1.014926   1.620863   2.032094   2.298942   2.808831
    17  H    2.560324   2.988186   2.210439   2.574482   3.497006
                    6          7          8          9         10
     6  H    0.000000
     7  H    1.760331   0.000000
     8  C    2.156249   2.155172   0.000000
     9  H    3.065721   2.516985   1.092710   0.000000
    10  H    2.492973   3.060656   1.096021   1.765937   0.000000
    11  C    2.776976   2.782378   1.531906   2.153589   2.129468
    12  O    2.621116   3.124944   2.385218   3.265508   2.760948
    13  O    3.974270   3.610455   2.388533   2.481306   2.976310
    14  C    2.791697   2.685035   3.877388   4.144392   4.215316
    15  O    2.926388   2.582824   4.314188   4.651076   4.843803
    16  H    3.197149   3.778776   2.834073   3.029709   2.291149
    17  H    3.731883   3.765831   4.736252   4.931971   4.911755
                   11         12         13         14         15
    11  C    0.000000
    12  O    1.258528   0.000000
    13  O    1.256792   2.234613   0.000000
    14  C    5.061859   5.289441   6.018406   0.000000
    15  O    5.223301   5.295145   6.169284   1.208787   0.000000
    16  H    4.273330   4.793913   5.113463   3.274755   4.336027
    17  H    6.025859   6.274702   6.977036   1.104880   2.011909
                   16         17
    16  H    0.000000
    17  H    3.472265   0.000000
 Stoichiometry    C5H8NO3(1-)
 Framework group  C1[X(C5H8NO3)]
 Deg. of freedom    45
 Full point group                 C1      NOp   1
 Largest Abelian subgroup         C1      NOp   1
 Largest concise Abelian subgroup C1      NOp   1
                         Standard orientation:                         
 ---------------------------------------------------------------------
 Center     Atomic      Atomic             Coordinates (Angstroms)
 Number     Number       Type             X           Y           Z
 ---------------------------------------------------------------------
      1          7           0        1.759125    1.692871   -0.461486
      2          1           0        1.556470    1.496043   -1.439551
      3          6           0        1.496785    0.477802    0.311827
      4          1           0        1.504266    0.764195    1.373193
      5          6           0        0.191640   -0.245481   -0.002631
      6          1           0        0.193667   -0.531033   -1.059268
      7          1           0        0.149582   -1.170398    0.580254
      8          6           0       -1.038390    0.605375    0.297205
      9          1           0       -1.046708    0.906990    1.347431
     10          1           0       -1.011825    1.518078   -0.309037
     11          6           0       -2.351140   -0.113633   -0.029062
     12          8           0       -2.420346   -0.707783   -1.136351
     13          8           0       -3.274421   -0.050806    0.821309
     14          6           0        2.697033   -0.426642    0.171925
     15          8           0        2.644909   -1.632131    0.099501
     16          1           0        1.095598    2.407910   -0.181261
     17          1           0        3.668368    0.099347    0.147389
 ---------------------------------------------------------------------
 Rotational constants (GHZ):      3.1812391      0.7428230      0.6738317

 **********************************************************************

            Population analysis using the SCF density.

 **********************************************************************

 Orbital symmetries:
       Occupied  (A) (A) (A) (A) (A) (A) (A) (A) (A) (A) (A) (A)
                 (A) (A) (A) (A) (A) (A) (A) (A) (A) (A) (A) (A)
                 (A) (A) (A) (A) (A) (A) (A) (A) (A) (A) (A)
       Virtual   (A) (A) (A) (A) (A) (A) (A) (A) (A) (A) (A) (A)
                 (A) (A) (A) (A) (A) (A) (A) (A) (A) (A) (A) (A)
                 (A) (A) (A) (A) (A) (A) (A) (A) (A) (A) (A) (A)
                 (A) (A) (A) (A) (A) (A) (A) (A) (A) (A) (A) (A)
                 (A) (A) (A) (A) (A) (A) (A) (A) (A) (A) (A) (A)
                 (A) (A) (A) (A) (A) (A) (A) (A) (A) (A) (A) (A)
                 (A) (A) (A) (A) (A) (A) (A) (A) (A) (A) (A) (A)
                 (A) (A) (A) (A) (A) (A) (A) (A) (A) (A) (A) (A)
                 (A) (A) (A) (A) (A) (A) (A) (A) (A) (A) (A) (A)
                 (A) (A) (A) (A) (A) (A) (A) (A) (A) (A) (A) (A)
                 (A) (A) (A) (A) (A) (A) (A) (A) (A) (A) (A) (A)
                 (A) (A) (A) (A) (A) (A) (A) (A) (A) (A) (A) (A)
                 (A) (A) (A) (A) (A) (A) (A) (A) (A) (A) (A) (A)
                 (A) (A) (A) (A) (A) (A) (A) (A) (A) (A) (A) (A)
                 (A) (A) (A) (A) (A) (A) (A)
 The electronic state is 1-A.
 Alpha  occ. eigenvalues --  -19.62646 -19.54465 -19.54457 -14.72164 -10.62681
 Alpha  occ. eigenvalues --  -10.61599 -10.56520 -10.52344 -10.51587  -1.18059
 Alpha  occ. eigenvalues --   -1.14116  -1.04347  -0.99649  -0.86378  -0.79458
 Alpha  occ. eigenvalues --   -0.71154  -0.63602  -0.58768  -0.56475  -0.55686
 Alpha  occ. eigenvalues --   -0.53201  -0.51662  -0.50166  -0.48891  -0.47975
 Alpha  occ. eigenvalues --   -0.46260  -0.45105  -0.42458  -0.39880  -0.38648
 Alpha  occ. eigenvalues --   -0.33812  -0.31906  -0.31533  -0.30680  -0.29812
 Alpha virt. eigenvalues --    0.01734   0.09018   0.11299   0.11865   0.12834
 Alpha virt. eigenvalues --    0.13038   0.15514   0.17407   0.18230   0.20132
 Alpha virt. eigenvalues --    0.24766   0.26611   0.28370   0.29785   0.31653
 Alpha virt. eigenvalues --    0.32214   0.36956   0.38123   0.38445   0.40545
 Alpha virt. eigenvalues --    0.43029   0.45438   0.46992   0.49190   0.49745
 Alpha virt. eigenvalues --    0.52106   0.56103   0.58375   0.60065   0.61193
 Alpha virt. eigenvalues --    0.62383   0.63564   0.64123   0.65037   0.65726
 Alpha virt. eigenvalues --    0.66377   0.66835   0.68231   0.68937   0.70255
 Alpha virt. eigenvalues --    0.72771   0.74141   0.75429   0.79960   0.80851
 Alpha virt. eigenvalues --    0.83401   0.84619   0.86260   0.89357   0.90679
 Alpha virt. eigenvalues --    0.93454   0.94978   0.98915   1.00501   1.02277
 Alpha virt. eigenvalues --    1.03429   1.06130   1.08665   1.11875   1.15813
 Alpha virt. eigenvalues --    1.18890   1.25922   1.29866   1.33183   1.33371
 Alpha virt. eigenvalues --    1.43164   1.44519   1.46539   1.50143   1.50512
 Alpha virt. eigenvalues --    1.51901   1.54497   1.55758   1.56954   1.59028
 Alpha virt. eigenvalues --    1.62563   1.64421   1.64678   1.66097   1.67565
 Alpha virt. eigenvalues --    1.71562   1.73214   1.74749   1.76296   1.77536
 Alpha virt. eigenvalues --    1.81285   1.82277   1.84591   1.86719   1.89998
 Alpha virt. eigenvalues --    1.91167   1.93471   2.00323   2.00751   2.03212
 Alpha virt. eigenvalues --    2.03651   2.10006   2.13269   2.14978   2.16441
 Alpha virt. eigenvalues --    2.23562   2.30526   2.31027   2.34083   2.37567
 Alpha virt. eigenvalues --    2.44564   2.48595   2.52938   2.53764   2.55894
 Alpha virt. eigenvalues --    2.56371   2.59519   2.60478   2.64059   2.66803
 Alpha virt. eigenvalues --    2.71077   2.72209   2.73835   2.75420   2.80290
 Alpha virt. eigenvalues --    2.83248   2.85639   2.87159   2.88160   2.95465
 Alpha virt. eigenvalues --    2.96667   2.97337   2.98873   3.00853   3.01512
 Alpha virt. eigenvalues --    3.03843   3.07472   3.09903   3.15118   3.21054
 Alpha virt. eigenvalues --    3.26034   3.34812   3.36568   3.38315   3.43893
 Alpha virt. eigenvalues --    3.45273   3.47038   3.55670   3.58786   3.63314
 Alpha virt. eigenvalues --    3.71437   3.83977   3.86937   3.89429   3.98880
 Alpha virt. eigenvalues --    4.00251   4.12043   4.16588   4.28046   4.40914
 Alpha virt. eigenvalues --    4.81045   4.91474   5.00434   5.04789   5.08489
 Alpha virt. eigenvalues --    5.09632   5.14257   5.20902   5.56280   5.66652
 Alpha virt. eigenvalues --    5.86538  23.86274  23.90492  23.91207  23.97051
 Alpha virt. eigenvalues --   23.98286  35.67241  50.04309  50.05293  50.17139
          Condensed to atoms (all electrons):
               1          2          3          4          5          6
     1  N    6.642982   0.378164   0.270483  -0.029634  -0.080402  -0.003452
     2  H    0.378164   0.461618  -0.063094   0.008276   0.001099   0.004457
     3  C    0.270483  -0.063094   5.577423   0.394155   0.212638  -0.036582
     4  H   -0.029634   0.008276   0.394155   0.491461  -0.038697   0.007208
     5  C   -0.080402   0.001099   0.212638  -0.038697   5.322858   0.394118
     6  H   -0.003452   0.004457  -0.036582   0.007208   0.394118   0.542062
     7  H    0.007053   0.000323  -0.048335  -0.002845   0.398968  -0.025898
     8  C    0.001144  -0.001292  -0.059680  -0.004448   0.191244  -0.046514
     9  H   -0.000881   0.000010  -0.003830   0.002917  -0.041641   0.007946
    10  H    0.013064   0.001945  -0.012903  -0.000253  -0.039188  -0.003477
    11  C    0.000438   0.000018   0.002301  -0.000314  -0.029679  -0.003981
    12  O   -0.000014  -0.000146   0.000373  -0.000026   0.014426   0.020384
    13  O    0.000000  -0.000001  -0.000299  -0.000091   0.003098   0.000811
    14  C   -0.051647  -0.004354   0.252799  -0.028521  -0.056991  -0.004426
    15  O    0.002294   0.000387  -0.118557   0.001222   0.019906   0.002489
    16  H    0.380742  -0.036177  -0.038040  -0.012438  -0.000205  -0.000734
    17  H    0.020750  -0.000386  -0.118732  -0.000031   0.014023  -0.000112
               7          8          9         10         11         12
     1  N    0.007053   0.001144  -0.000881   0.013064   0.000438  -0.000014
     2  H    0.000323  -0.001292   0.000010   0.001945   0.000018  -0.000146
     3  C   -0.048335  -0.059680  -0.003830  -0.012903   0.002301   0.000373
     4  H   -0.002845  -0.004448   0.002917  -0.000253  -0.000314  -0.000026
     5  C    0.398968   0.191244  -0.041641  -0.039188  -0.029679   0.014426
     6  H   -0.025898  -0.046514   0.007946  -0.003477  -0.003981   0.020384
     7  H    0.543646  -0.041966  -0.005043   0.008960   0.001465  -0.000103
     8  C   -0.041966   5.658767   0.370355   0.371523   0.219182  -0.169567
     9  H   -0.005043   0.370355   0.552515  -0.020940  -0.030498   0.007217
    10  H    0.008960   0.371523  -0.020940   0.529830  -0.015705   0.003824
    11  C    0.001465   0.219182  -0.030498  -0.015705   4.323413   0.577958
    12  O   -0.000103  -0.169567   0.007217   0.003824   0.577958   8.285477
    13  O    0.000981  -0.143927   0.015062   0.001839   0.612030  -0.104248
    14  C   -0.004180   0.007469   0.000024  -0.000017  -0.000160  -0.000009
    15  O    0.011391   0.000290  -0.000045  -0.000043  -0.000010   0.000000
    16  H   -0.000528   0.003135  -0.000076   0.001287   0.000094  -0.000009
    17  H    0.000670  -0.000422  -0.000040  -0.000151   0.000000   0.000000
              13         14         15         16         17
     1  N    0.000000  -0.051647   0.002294   0.380742   0.020750
     2  H   -0.000001  -0.004354   0.000387  -0.036177  -0.000386
     3  C   -0.000299   0.252799  -0.118557  -0.038040  -0.118732
     4  H   -0.000091  -0.028521   0.001222  -0.012438  -0.000031
     5  C    0.003098  -0.056991   0.019906  -0.000205   0.014023
     6  H    0.000811  -0.004426   0.002489  -0.000734  -0.000112
     7  H    0.000981  -0.004180   0.011391  -0.000528   0.000670
     8  C   -0.143927   0.007469   0.000290   0.003135  -0.000422
     9  H    0.015062   0.000024  -0.000045  -0.000076  -0.000040
    10  H    0.001839  -0.000017  -0.000043   0.001287  -0.000151
    11  C    0.612030  -0.000160  -0.000010   0.000094   0.000000
    12  O   -0.104248  -0.000009   0.000000  -0.000009   0.000000
    13  O    8.247876   0.000001  -0.000000   0.000007  -0.000000
    14  C    0.000001   4.601835   0.590190   0.005401   0.421718
    15  O   -0.000000   0.590190   7.938671  -0.000237  -0.042105
    16  H    0.000007   0.005401  -0.000237   0.442065  -0.000734
    17  H   -0.000000   0.421718  -0.042105  -0.000734   0.569439
 Mulliken charges:
               1
     1  N   -0.551086
     2  H    0.249154
     3  C   -0.210119
     4  H    0.212060
     5  C   -0.285574
     6  H    0.145703
     7  H    0.155443
     8  C   -0.355292
     9  H    0.146949
    10  H    0.160404
    11  C    0.343447
    12  O   -0.635536
    13  O   -0.633137
    14  C    0.270867
    15  O   -0.405843
    16  H    0.256449
    17  H    0.136112
 Sum of Mulliken charges =  -1.00000
 Mulliken charges with hydrogens summed into heavy atoms:
               1
     1  N   -0.045483
     3  C    0.001941
     5  C    0.015571
     8  C   -0.047939
    11  C    0.343447
    12  O   -0.635536
    13  O   -0.633137
    14  C    0.406979
    15  O   -0.405843
 Electronic spatial extent (au):  <R**2>=           1665.4364
 Charge=             -1.0000 electrons
 Dipole moment (field-independent basis, Debye):
    X=             12.7253    Y=              5.8600    Z=              1.0798  Tot=             14.0513
 Quadrupole moment (field-independent basis, Debye-Ang):
   XX=           -108.8328   YY=            -61.8978   ZZ=            -58.6500
   XY=             -1.8301   XZ=              0.8628   YZ=             -3.3828
 Traceless Quadrupole moment (field-independent basis, Debye-Ang):
   XX=            -32.3726   YY=             14.5624   ZZ=             17.8102
   XY=             -1.8301   XZ=              0.8628   YZ=             -3.3828
 Octapole moment (field-independent basis, Debye-Ang**2):
  XXX=            138.8455  YYY=             13.4741  ZZZ=              0.6679  XYY=            -19.6300
  XXY=             25.1488  XXZ=             -6.4745  XZZ=             26.9752  YZZ=              5.6798
  YYZ=              1.2634  XYZ=              9.2708
 Hexadecapole moment (field-independent basis, Debye-Ang**3):
 XXXX=          -2094.6469 YYYY=           -345.0811 ZZZZ=           -168.5640 XXXY=            -26.9051
 XXXZ=             61.3730 YYYX=              4.4108 YYYZ=             -4.3767 ZZZX=             -9.9321
 ZZZY=             -8.9959 XXYY=           -406.7601 XXZZ=           -342.1865 YYZZ=            -82.3583
 XXYZ=            -13.0445 YYXZ=             -3.8055 ZZXY=             -8.3276
 N-N= 4.334839256323D+02 E-N=-1.995034659515D+03  KE= 4.744238149220D+02
 1\1\NSC-N1874\FOpt\RM062X\6-311G(d,p)\C5H8N1O3(1-)\X_GABOA\03-Apr-2023
 \0\\#M062X/6-311G** scrf=smd opt\\glu\\-1,1\N,14.4308125367,25.9766623
 841,9.1900021869\H,15.3670515618,26.2732490019,8.9218346046\C,14.39831
 91038,25.8315300266,10.6464053052\H,13.4660119123,25.3053575583,10.896
 4448385\C,15.5752448147,25.089169402,11.2702411159\H,16.498661946,25.6
 211909489,11.02068242\H,15.4736144698,25.1150229868,12.3592775834\C,15
 .6729785633,23.6416586957,10.7990795849\H,14.7520619,23.1016874989,11.
 0322305316\H,15.8051509828,23.6162929121,9.711353105\C,16.8614951519,2
 2.8963198783,11.414411921\O,17.9713406627,23.4897159417,11.4185247699\
 O,16.6538045911,21.7396428607,11.8599317935\C,14.2106124691,27.2051389
 655,11.2431885086\O,14.7244762348,27.5851761531,12.269191341\H,14.2998
 519829,25.0630616236,8.7677974982\H,13.5403611161,27.8685631619,10.667
 5228919\\Version=ES64L-G09RevE.01\State=1-A\HF=-475.8701726\RMSD=5.530
 e-09\RMSF=2.830e-05\Dipole=-3.7388979,3.3242057,-2.3518742\Quadrupole=
 1.6041582,-14.329876,12.7257177,14.9690117,-4.8729114,3.4288705\PG=C01
  [X(C5H8N1O3)]\\@


 SCIENCE IS LONG AND LIFE IS SHORT.

                     DON MOSER IN THE FEBRUARY 1979 SMITHSONIAN
 Job cpu time:       0 days  1 hours 26 minutes 57.4 seconds.
 File lengths (MBytes):  RWF=     86 Int=      0 D2E=      0 Chk=     12 Scr=      1
 Normal termination of Gaussian 09 at Mon Apr  3 11:15:57 2023.
