 Entering Gaussian System, Link 0=/software/sse/easybuild/prefix/software/Gaussian/09.E.01-avx-nsc1-bdist/g09/g09.orig
 Input=glh_opt.wrap
 Output=glh_opt.log
 Initial command:
 /software/sse/easybuild/prefix/software/Gaussian/09.E.01-avx-nsc1-bdist/g09/l1.exe "/scratch/local/Gau-65902.inp" -scrdir="/scratch/local/"
 Entering Link 1 = /software/sse/easybuild/prefix/software/Gaussian/09.E.01-avx-nsc1-bdist/g09/l1.exe PID=     65903.
  
 Copyright (c) 1988,1990,1992,1993,1995,1998,2003,2009,2015,
            Gaussian, Inc.  All Rights Reserved.
  
 This is part of the Gaussian(R) 09 program.  It is based on
 the Gaussian(R) 03 system (copyright 2003, Gaussian, Inc.),
 the Gaussian(R) 98 system (copyright 1998, Gaussian, Inc.),
 the Gaussian(R) 94 system (copyright 1995, Gaussian, Inc.),
 the Gaussian 92(TM) system (copyright 1992, Gaussian, Inc.),
 the Gaussian 90(TM) system (copyright 1990, Gaussian, Inc.),
 the Gaussian 88(TM) system (copyright 1988, Gaussian, Inc.),
 the Gaussian 86(TM) system (copyright 1986, Carnegie Mellon
 University), and the Gaussian 82(TM) system (copyright 1983,
 Carnegie Mellon University). Gaussian is a federally registered
 trademark of Gaussian, Inc.
  
 This software contains proprietary and confidential information,
 including trade secrets, belonging to Gaussian, Inc.
  
 This software is provided under written license and may be
 used, copied, transmitted, or stored only in accord with that
 written license.
  
 The following legend is applicable only to US Government
 contracts under FAR:
  
                    RESTRICTED RIGHTS LEGEND
  
 Use, reproduction and disclosure by the US Government is
 subject to restrictions as set forth in subparagraphs (a)
 and (c) of the Commercial Computer Software - Restricted
 Rights clause in FAR 52.227-19.
  
 Gaussian, Inc.
 340 Quinnipiac St., Bldg. 40, Wallingford CT 06492
  
  
 ---------------------------------------------------------------
 Warning -- This program may not be used in any manner that
 competes with the business of Gaussian, Inc. or will provide
 assistance to any competitor of Gaussian, Inc.  The licensee
 of this program is prohibited from giving any competitor of
 Gaussian, Inc. access to this program.  By using this program,
 the user acknowledges that Gaussian, Inc. is engaged in the
 business of creating and licensing software in the field of
 computational chemistry and represents and warrants to the
 licensee that it is not a competitor of Gaussian, Inc. and that
 it will not use this program in any manner prohibited above.
 ---------------------------------------------------------------
  

 Cite this work as:
 Gaussian 09, Revision E.01,
 M. J. Frisch, G. W. Trucks, H. B. Schlegel, G. E. Scuseria, 
 M. A. Robb, J. R. Cheeseman, G. Scalmani, V. Barone, B. Mennucci, 
 G. A. Petersson, H. Nakatsuji, M. Caricato, X. Li, H. P. Hratchian, 
 A. F. Izmaylov, J. Bloino, G. Zheng, J. L. Sonnenberg, M. Hada, 
 M. Ehara, K. Toyota, R. Fukuda, J. Hasegawa, M. Ishida, T. Nakajima, 
 Y. Honda, O. Kitao, H. Nakai, T. Vreven, J. A. Montgomery, Jr., 
 J. E. Peralta, F. Ogliaro, M. Bearpark, J. J. Heyd, E. Brothers, 
 K. N. Kudin, V. N. Staroverov, T. Keith, R. Kobayashi, J. Normand, 
 K. Raghavachari, A. Rendell, J. C. Burant, S. S. Iyengar, J. Tomasi, 
 M. Cossi, N. Rega, J. M. Millam, M. Klene, J. E. Knox, J. B. Cross, 
 V. Bakken, C. Adamo, J. Jaramillo, R. Gomperts, R. E. Stratmann, 
 O. Yazyev, A. J. Austin, R. Cammi, C. Pomelli, J. W. Ochterski, 
 R. L. Martin, K. Morokuma, V. G. Zakrzewski, G. A. Voth, 
 P. Salvador, J. J. Dannenberg, S. Dapprich, A. D. Daniels, 
 O. Farkas, J. B. Foresman, J. V. Ortiz, J. Cioslowski, 
 and D. J. Fox, Gaussian, Inc., Wallingford CT, 2013.
 
 ******************************************
 Gaussian 09:  ES64L-G09RevE.01 30-Nov-2015
                 3-Apr-2023 
 ******************************************
 %nproc=16
 Will use up to   16 processors via shared memory.
 %chk=glh_opt
 ----------------------------
 #M062X/6-311G** scrf=smd opt
 ----------------------------
 1/14=-1,18=20,19=15,26=3,38=1/1,3;
 2/9=110,12=2,17=6,18=5,40=1/2;
 3/5=4,6=6,7=101,11=2,16=1,25=1,30=1,70=32201,71=1,72=1,74=-55/1,2,3;
 4//1;
 5/5=2,38=5/2;
 6/7=2,8=2,9=2,10=2,28=1/1;
 7//1,2,3,16;
 1/14=-1,18=20,19=15,26=3/3(2);
 2/9=110/2;
 99//99;
 2/9=110/2;
 3/5=4,6=6,7=101,11=2,16=1,25=1,30=1,70=32205,71=1,74=-55/1,2,3;
 4/5=5,16=3,69=1/1;
 5/5=2,38=5/2;
 7//1,2,3,16;
 1/14=-1,18=20,19=15,26=3/3(-5);
 2/9=110/2;
 6/7=2,8=2,9=2,10=2,19=2,28=1/1;
 99/9=1/99;
 ---
 glh
 ---
 Symbolic Z-matrix:
 Charge =  0 Multiplicity = 1
 N                     14.332    25.913    9.221 
 H                     15.       26.52     8.79 
 C                     14.315    25.809    10.676 
 H                     13.488    25.285    10.878 
 C                     15.483    25.018    11.275 
 H                     16.306    25.583    11.208 
 H                     15.277    24.843    12.238 
 C                     15.802    23.69     10.64 
 H                     14.958    23.161    10.554 
 H                     16.189    23.85     9.732 
 C                     16.809    22.916    11.499 
 O                     18.033    23.18     11.59 
 O                     16.32     21.959    12.152 
 C                     14.266    27.216    11.255 
 O                     15.263    27.907    11.345 
 H                     14.49851   24.97556   8.85511 
 H                     13.36234   27.59388   11.58001 
 H                     15.40628   21.7632   12.08303 
 

 GradGradGradGradGradGradGradGradGradGradGradGradGradGradGradGradGradGrad
 Berny optimization.
 Initialization pass.
                           ----------------------------
                           !    Initial Parameters    !
                           ! (Angstroms and Degrees)  !
 --------------------------                            --------------------------
 ! Name  Definition              Value          Derivative Info.                !
 --------------------------------------------------------------------------------
 ! R1    R(1,2)                  1.0002         estimate D2E/DX2                !
 ! R2    R(1,3)                  1.4588         estimate D2E/DX2                !
 ! R3    R(1,16)                 1.02           estimate D2E/DX2                !
 ! R4    R(3,4)                  0.9997         estimate D2E/DX2                !
 ! R5    R(3,5)                  1.5325         estimate D2E/DX2                !
 ! R6    R(3,14)                 1.5223         estimate D2E/DX2                !
 ! R7    R(5,6)                  1.0005         estimate D2E/DX2                !
 ! R8    R(5,7)                  1.0002         estimate D2E/DX2                !
 ! R9    R(5,8)                  1.5062         estimate D2E/DX2                !
 ! R10   R(8,9)                  0.9998         estimate D2E/DX2                !
 ! R11   R(8,10)                 0.9999         estimate D2E/DX2                !
 ! R12   R(8,11)                 1.5333         estimate D2E/DX2                !
 ! R13   R(11,12)                1.2554         estimate D2E/DX2                !
 ! R14   R(11,13)                1.2575         estimate D2E/DX2                !
 ! R15   R(13,18)                0.937          estimate D2E/DX2                !
 ! R16   R(14,15)                1.2164         estimate D2E/DX2                !
 ! R17   R(14,17)                1.032          estimate D2E/DX2                !
 ! A1    A(2,1,3)              118.7395         estimate D2E/DX2                !
 ! A2    A(2,1,16)             107.1067         estimate D2E/DX2                !
 ! A3    A(3,1,16)             107.1072         estimate D2E/DX2                !
 ! A4    A(1,3,4)              104.3918         estimate D2E/DX2                !
 ! A5    A(1,3,5)              114.6923         estimate D2E/DX2                !
 ! A6    A(1,3,14)             108.291          estimate D2E/DX2                !
 ! A7    A(4,3,5)              106.3182         estimate D2E/DX2                !
 ! A8    A(4,3,14)             112.3958         estimate D2E/DX2                !
 ! A9    A(5,3,14)             110.6661         estimate D2E/DX2                !
 ! A10   A(3,5,6)              108.0151         estimate D2E/DX2                !
 ! A11   A(3,5,7)              108.0381         estimate D2E/DX2                !
 ! A12   A(3,5,8)              116.8534         estimate D2E/DX2                !
 ! A13   A(6,5,7)              109.4321         estimate D2E/DX2                !
 ! A14   A(6,5,8)              107.1848         estimate D2E/DX2                !
 ! A15   A(7,5,8)              107.1735         estimate D2E/DX2                !
 ! A16   A(5,8,9)              108.9045         estimate D2E/DX2                !
 ! A17   A(5,8,10)             108.8886         estimate D2E/DX2                !
 ! A18   A(5,8,11)             110.364          estimate D2E/DX2                !
 ! A19   A(9,8,10)             109.4679         estimate D2E/DX2                !
 ! A20   A(9,8,11)             109.6039         estimate D2E/DX2                !
 ! A21   A(10,8,11)            109.592          estimate D2E/DX2                !
 ! A22   A(8,11,12)            125.0828         estimate D2E/DX2                !
 ! A23   A(8,11,13)            114.8147         estimate D2E/DX2                !
 ! A24   A(12,11,13)           120.0997         estimate D2E/DX2                !
 ! A25   A(11,13,18)           119.9998         estimate D2E/DX2                !
 ! A26   A(3,14,15)            121.791          estimate D2E/DX2                !
 ! A27   A(3,14,17)            119.1048         estimate D2E/DX2                !
 ! A28   A(15,14,17)           119.1043         estimate D2E/DX2                !
 ! D1    D(2,1,3,4)            170.7178         estimate D2E/DX2                !
 ! D2    D(2,1,3,5)            -73.3536         estimate D2E/DX2                !
 ! D3    D(2,1,3,14)            50.7775         estimate D2E/DX2                !
 ! D4    D(16,1,3,4)           -67.9643         estimate D2E/DX2                !
 ! D5    D(16,1,3,5)            47.9643         estimate D2E/DX2                !
 ! D6    D(16,1,3,14)          172.0955         estimate D2E/DX2                !
 ! D7    D(1,3,5,6)             73.47           estimate D2E/DX2                !
 ! D8    D(1,3,5,7)           -168.2469         estimate D2E/DX2                !
 ! D9    D(1,3,5,8)            -47.3868         estimate D2E/DX2                !
 ! D10   D(4,3,5,6)           -171.717          estimate D2E/DX2                !
 ! D11   D(4,3,5,7)            -53.4339         estimate D2E/DX2                !
 ! D12   D(4,3,5,8)             67.4262         estimate D2E/DX2                !
 ! D13   D(14,3,5,6)           -49.3916         estimate D2E/DX2                !
 ! D14   D(14,3,5,7)            68.8915         estimate D2E/DX2                !
 ! D15   D(14,3,5,8)          -170.2484         estimate D2E/DX2                !
 ! D16   D(1,3,14,15)          -79.8952         estimate D2E/DX2                !
 ! D17   D(1,3,14,17)          100.105          estimate D2E/DX2                !
 ! D18   D(4,3,14,15)          165.3115         estimate D2E/DX2                !
 ! D19   D(4,3,14,17)          -14.6883         estimate D2E/DX2                !
 ! D20   D(5,3,14,15)           46.6112         estimate D2E/DX2                !
 ! D21   D(5,3,14,17)         -133.3886         estimate D2E/DX2                !
 ! D22   D(3,5,8,9)            -49.3131         estimate D2E/DX2                !
 ! D23   D(3,5,8,10)            69.9951         estimate D2E/DX2                !
 ! D24   D(3,5,8,11)          -169.6713         estimate D2E/DX2                !
 ! D25   D(6,5,8,9)           -170.607          estimate D2E/DX2                !
 ! D26   D(6,5,8,10)           -51.2988         estimate D2E/DX2                !
 ! D27   D(6,5,8,11)            69.0348         estimate D2E/DX2                !
 ! D28   D(7,5,8,9)             72.002          estimate D2E/DX2                !
 ! D29   D(7,5,8,10)          -168.6898         estimate D2E/DX2                !
 ! D30   D(7,5,8,11)           -48.3563         estimate D2E/DX2                !
 ! D31   D(5,8,11,12)          -74.1537         estimate D2E/DX2                !
 ! D32   D(5,8,11,13)          105.2389         estimate D2E/DX2                !
 ! D33   D(9,8,11,12)          165.9087         estimate D2E/DX2                !
 ! D34   D(9,8,11,13)          -14.6988         estimate D2E/DX2                !
 ! D35   D(10,8,11,12)          45.7568         estimate D2E/DX2                !
 ! D36   D(10,8,11,13)        -134.8507         estimate D2E/DX2                !
 ! D37   D(8,11,13,18)           0.5748         estimate D2E/DX2                !
 ! D38   D(12,11,13,18)       -179.9998         estimate D2E/DX2                !
 --------------------------------------------------------------------------------
 Trust Radius=3.00D-01 FncErr=1.00D-07 GrdErr=1.00D-06
 Number of steps in this run=     93 maximum allowed number of steps=    108.
 GradGradGradGradGradGradGradGradGradGradGradGradGradGradGradGradGradGrad

                          Input orientation:                          
 ---------------------------------------------------------------------
 Center     Atomic      Atomic             Coordinates (Angstroms)
 Number     Number       Type             X           Y           Z
 ---------------------------------------------------------------------
      1          7           0       14.332000   25.913000    9.221000
      2          1           0       15.000000   26.520000    8.790000
      3          6           0       14.315000   25.809000   10.676000
      4          1           0       13.488000   25.285000   10.878000
      5          6           0       15.483000   25.018000   11.275000
      6          1           0       16.306000   25.583000   11.208000
      7          1           0       15.277000   24.843000   12.238000
      8          6           0       15.802000   23.690000   10.640000
      9          1           0       14.958000   23.161000   10.554000
     10          1           0       16.189000   23.850000    9.732000
     11          6           0       16.809000   22.916000   11.499000
     12          8           0       18.033000   23.180000   11.590000
     13          8           0       16.320000   21.959000   12.152000
     14          6           0       14.266000   27.216000   11.255000
     15          8           0       15.263000   27.907000   11.345000
     16          1           0       14.498510   24.975560    8.855110
     17          1           0       13.362340   27.593880   11.580010
     18          1           0       15.406280   21.763200   12.083030
 ---------------------------------------------------------------------
                    Distance matrix (angstroms):
                    1          2          3          4          5
     1  N    0.000000
     2  H    1.000217   0.000000
     3  C    1.458811   2.128789   0.000000
     4  H    1.962745   2.858516   0.999654   0.000000
     5  C    2.518877   2.943555   1.532549   2.051566   0.000000
     6  H    2.820238   2.903503   2.073205   2.852863   1.000521
     7  H    3.337696   3.844185   2.073269   2.290302   1.000215
     8  C    3.019303   3.474853   2.588943   2.820508   1.506177
     9  H    3.121261   3.794251   2.727680   2.603316   2.060076
    10  H    2.822329   3.070828   2.870661   3.266182   2.059978
    11  C    4.506309   4.857981   3.907277   4.126360   2.495367
    12  O    5.174829   5.309867   4.644412   5.059150   3.159109
    13  O    5.308203   5.817918   4.584877   4.550338   3.290468
    14  C    2.416469   2.664469   1.522265   2.115697   2.512507
    15  O    3.058459   2.919069   2.397471   3.200562   2.898210
    16  H    1.019997   1.625124   2.010955   2.282316   2.612832
    17  H    3.054591   3.408710   2.215986   2.416513   3.350431
    18  H    5.154234   5.799677   4.420308   4.187478   3.354478
                    6          7          8          9         10
     6  H    0.000000
     7  H    1.633200   0.000000
     8  C    2.039630   2.039274   0.000000
     9  H    2.847965   2.401404   0.999786   0.000000
    10  H    2.279376   2.845668   0.999916   1.632717   0.000000
    11  C    2.729575   2.570306   1.533299   2.092666   2.092617
    12  O    2.983766   3.283445   2.477894   3.244886   2.702110
    13  O    3.744958   3.068013   2.356020   2.419391   3.073994
    14  C    2.613522   2.760351   3.894894   4.172923   4.165023
    15  O    2.550999   3.191511   4.309366   4.821122   4.463014
    16  H    3.028547   3.473840   2.556870   2.527842   2.212143
    17  H    3.584294   3.415584   4.698493   4.821748   5.042002
    18  H    4.020702   3.086405   2.439567   2.119607   3.239557
                   11         12         13         14         15
    11  C    0.000000
    12  O    1.255449   0.000000
    13  O    1.257529   2.177396   0.000000
    14  C    5.001638   5.530986   5.714856   0.000000
    15  O    5.227228   5.484292   6.094850   1.216384   0.000000
    16  H    4.070664   4.816252   4.825655   3.291368   3.921395
    17  H    5.811075   6.426313   6.389585   1.032001   1.940562
    18  H    1.907266   3.024906   0.937005   5.631953   6.189628
                   16         17         18
    16  H    0.000000
    17  H    3.946082   0.000000
    18  H    4.643573   6.198996   0.000000
 Stoichiometry    C5H9NO3
 Framework group  C1[X(C5H9NO3)]
 Deg. of freedom    48
 Full point group                 C1      NOp   1
 Largest Abelian subgroup         C1      NOp   1
 Largest concise Abelian subgroup C1      NOp   1
                         Standard orientation:                         
 ---------------------------------------------------------------------
 Center     Atomic      Atomic             Coordinates (Angstroms)
 Number     Number       Type             X           Y           Z
 ---------------------------------------------------------------------
      1          7           0        1.891203    1.440966   -0.691618
      2          1           0        2.192041    1.049567   -1.561524
      3          6           0        1.522729    0.538356    0.393579
      4          1           0        1.412235    1.136060    1.187209
      5          6           0        0.180956   -0.177305    0.203367
      6          1           0        0.302172   -0.880902   -0.497562
      7          1           0       -0.064681   -0.610550    1.070772
      8          6           0       -0.989706    0.672231   -0.216644
      9          1           0       -1.039972    1.472503    0.380526
     10          1           0       -0.851541    0.969489   -1.161303
     11          6           0       -2.293532   -0.128214   -0.114997
     12          8           0       -2.649043   -1.032342   -0.910181
     13          8           0       -3.023433    0.173985    0.863420
     14          6           0        2.647898   -0.470038    0.579129
     15          8           0        2.766709   -1.438493   -0.147211
     16          1           0        1.075740    2.020827   -0.889549
     17          1           0        3.328394   -0.328160    1.341901
     18          1           0       -2.756734    0.849012    1.456033
 ---------------------------------------------------------------------
 Rotational constants (GHZ):      3.2799626      0.7244125      0.6736655
 Standard basis: 6-311G(d,p) (5D, 7F)
 There are   225 symmetry adapted cartesian basis functions of A   symmetry.
 There are   216 symmetry adapted basis functions of A   symmetry.
   216 basis functions,   360 primitive gaussians,   225 cartesian basis functions
    35 alpha electrons       35 beta electrons
       nuclear repulsion energy       450.5914643475 Hartrees.
 NAtoms=   18 NActive=   18 NUniq=   18 SFac= 1.00D+00 NAtFMM=   60 NAOKFM=F Big=F
 Integral buffers will be    131072 words long.
 Raffenetti 2 integral format.
 Two-electron integral symmetry is turned on.
 ------------------------------------------------------------------------------
 Polarizable Continuum Model (PCM)
 =================================
 Model                : PCM (using non-symmetric T matrix).
 Atomic radii         : SMD-Coulomb.
 Polarization charges : Total charges.
 Charge compensation  : None.
 Solution method      : On-the-fly selection.
 Cavity type          : VdW (van der Waals Surface) (Alpha=1.000).
 Cavity algorithm     : GePol (No added spheres)
                        Default sphere list used, NSphG=   18.
                        Lebedev-Laikov grids with approx.  5.0 points / Ang**2.
                        Smoothing algorithm: York/Karplus (Gamma=1.0000).
                        Polarization charges: spherical gaussians, with
                                              point-specific exponents (IZeta= 3).
                        Self-potential: point-specific (ISelfS= 7).
                        Self-field    : sphere-specific E.n sum rule (ISelfD= 2).
 1st derivatives      : Analytical E(r).r(x)/FMM algorithm (CHGder, D1EAlg=3).
                        Cavity 1st derivative terms included.
 Solvent              : Water, Eps=  78.355300 Eps(inf)=   1.777849
 ------------------------------------------------------------------------------
 Spheres list:
 ISph  on   Nord     Re0    Alpha      Xe            Ye            Ze
    1   N      1    1.8900  1.000      1.891203      1.440966     -0.691618
    2   H      2    1.2000  1.000      2.192041      1.049567     -1.561524
    3   C      3    1.8500  1.000      1.522729      0.538356      0.393579
    4   H      4    1.2000  1.000      1.412235      1.136060      1.187209
    5   C      5    1.8500  1.000      0.180956     -0.177305      0.203367
    6   H      6    1.2000  1.000      0.302172     -0.880902     -0.497562
    7   H      7    1.2000  1.000     -0.064681     -0.610550      1.070772
    8   C      8    1.8500  1.000     -0.989706      0.672231     -0.216644
    9   H      9    1.2000  1.000     -1.039972      1.472503      0.380526
   10   H     10    1.2000  1.000     -0.851541      0.969489     -1.161303
   11   C     11    1.8500  1.000     -2.293532     -0.128214     -0.114997
   12   O     12    1.5200  1.000     -2.649043     -1.032342     -0.910181
   13   O     13    1.5200  1.000     -3.023433      0.173985      0.863420
   14   C     14    1.8500  1.000      2.647898     -0.470038      0.579129
   15   O     15    1.5200  1.000      2.766709     -1.438493     -0.147211
   16   H     16    1.2000  1.000      1.075740      2.020827     -0.889549
   17   H     17    1.2000  1.000      3.328394     -0.328160      1.341901
   18   H     18    1.2000  1.000     -2.756734      0.849012      1.456033
 ------------------------------------------------------------------------------
 ------------------------------------------------------------------------------
 Atomic radii for non-electrostatic terms: SMD-CDS.
 ------------------------------------------------------------------------------
 Nuclear repulsion after PCM non-electrostatic terms =      450.5993906020 Hartrees.
 One-electron integrals computed using PRISM.
 NBasis=   216 RedAO= T EigKep=  1.19D-03  NBF=   216
 NBsUse=   216 1.00D-06 EigRej= -1.00D+00 NBFU=   216
 ExpMin= 1.03D-01 ExpMax= 8.59D+03 ExpMxC= 1.30D+03 IAcc=1 IRadAn=         1 AccDes= 0.00D+00
 Harris functional with IExCor= 1009 and IRadAn=       1 diagonalized for initial guess.
 HarFok:  IExCor= 1009 AccDes= 0.00D+00 IRadAn=         1 IDoV= 1 UseB2=F ITyADJ=14
 ICtDFT=  3500011 ScaDFX=  1.000000  1.000000  1.000000  1.000000
 FoFCou: FMM=F IPFlag=           0 FMFlag=      100000 FMFlg1=           0
         NFxFlg=           0 DoJE=T BraDBF=F KetDBF=T FulRan=T
         wScrn=  0.000000 ICntrl=     500 IOpCl=  0 I1Cent=   200000004 NGrid=           0
         NMat0=    1 NMatS0=      1 NMatT0=    0 NMatD0=    1 NMtDS0=    0 NMtDT0=    0
 Petite list used in FoFCou.
 Requested convergence on RMS density matrix=1.00D-08 within 128 cycles.
 Requested convergence on MAX density matrix=1.00D-06.
 Requested convergence on             energy=1.00D-06.
 No special actions if energy rises.
 Inv3:  Mode=1 IEnd=     5274828.
 Iteration    1 A*A^-1 deviation from unit magnitude is 4.22D-15 for   1326.
 Iteration    1 A*A^-1 deviation from orthogonality  is 3.47D-15 for   1320    786.
 Iteration    1 A^-1*A deviation from unit magnitude is 4.22D-15 for   1326.
 Iteration    1 A^-1*A deviation from orthogonality  is 9.17D-13 for    710    694.
 Error on total polarization charges =  0.03536
 SCF Done:  E(RM062X) =  -476.275778772     A.U. after   14 cycles
            NFock= 14  Conv=0.44D-08     -V/T= 2.0012
 SMD-CDS (non-electrostatic) energy       (kcal/mol) =       4.97
 (included in total energy above)

 **********************************************************************

            Population analysis using the SCF density.

 **********************************************************************

 Orbital symmetries:
       Occupied  (A) (A) (A) (A) (A) (A) (A) (A) (A) (A) (A) (A)
                 (A) (A) (A) (A) (A) (A) (A) (A) (A) (A) (A) (A)
                 (A) (A) (A) (A) (A) (A) (A) (A) (A) (A) (A)
       Virtual   (A) (A) (A) (A) (A) (A) (A) (A) (A) (A) (A) (A)
                 (A) (A) (A) (A) (A) (A) (A) (A) (A) (A) (A) (A)
                 (A) (A) (A) (A) (A) (A) (A) (A) (A) (A) (A) (A)
                 (A) (A) (A) (A) (A) (A) (A) (A) (A) (A) (A) (A)
                 (A) (A) (A) (A) (A) (A) (A) (A) (A) (A) (A) (A)
                 (A) (A) (A) (A) (A) (A) (A) (A) (A) (A) (A) (A)
                 (A) (A) (A) (A) (A) (A) (A) (A) (A) (A) (A) (A)
                 (A) (A) (A) (A) (A) (A) (A) (A) (A) (A) (A) (A)
                 (A) (A) (A) (A) (A) (A) (A) (A) (A) (A) (A) (A)
                 (A) (A) (A) (A) (A) (A) (A) (A) (A) (A) (A) (A)
                 (A) (A) (A) (A) (A) (A) (A) (A) (A) (A) (A) (A)
                 (A) (A) (A) (A) (A) (A) (A) (A) (A) (A) (A) (A)
                 (A) (A) (A) (A) (A) (A) (A) (A) (A) (A) (A) (A)
                 (A) (A) (A) (A) (A) (A) (A) (A) (A) (A) (A) (A)
                 (A) (A) (A) (A) (A) (A) (A) (A) (A) (A) (A) (A)
                 (A)
 The electronic state is 1-A.
 Alpha  occ. eigenvalues --  -19.67423 -19.63269 -19.60249 -14.71886 -10.68513
 Alpha  occ. eigenvalues --  -10.63039 -10.56166 -10.52555 -10.51258  -1.26575
 Alpha  occ. eigenvalues --   -1.18309  -1.12793  -0.99955  -0.90132  -0.81910
 Alpha  occ. eigenvalues --   -0.75887  -0.73298  -0.66487  -0.61784  -0.60163
 Alpha  occ. eigenvalues --   -0.57127  -0.55358  -0.54541  -0.53728  -0.51618
 Alpha  occ. eigenvalues --   -0.49005  -0.48110  -0.45590  -0.43526  -0.43091
 Alpha  occ. eigenvalues --   -0.41512  -0.38899  -0.35863  -0.34077  -0.30393
 Alpha virt. eigenvalues --    0.00567   0.05186   0.08099   0.10616   0.11756
 Alpha virt. eigenvalues --    0.13625   0.14880   0.15856   0.17442   0.18702
 Alpha virt. eigenvalues --    0.21117   0.23184   0.24865   0.26406   0.29881
 Alpha virt. eigenvalues --    0.30852   0.31718   0.34624   0.38095   0.38536
 Alpha virt. eigenvalues --    0.41353   0.42647   0.44597   0.45195   0.46271
 Alpha virt. eigenvalues --    0.48994   0.51071   0.51456   0.55052   0.57478
 Alpha virt. eigenvalues --    0.58858   0.60521   0.61546   0.63689   0.65085
 Alpha virt. eigenvalues --    0.65548   0.66437   0.67174   0.69141   0.70245
 Alpha virt. eigenvalues --    0.70358   0.71195   0.72051   0.72893   0.75086
 Alpha virt. eigenvalues --    0.79202   0.81006   0.82751   0.84880   0.87446
 Alpha virt. eigenvalues --    0.88322   0.89813   0.92879   0.93163   0.95178
 Alpha virt. eigenvalues --    0.99077   1.00365   1.03124   1.03573   1.09624
 Alpha virt. eigenvalues --    1.10971   1.14048   1.19643   1.26921   1.30929
 Alpha virt. eigenvalues --    1.32632   1.34148   1.35720   1.38755   1.43033
 Alpha virt. eigenvalues --    1.44339   1.49384   1.49903   1.50828   1.53418
 Alpha virt. eigenvalues --    1.55186   1.57762   1.59512   1.60689   1.62174
 Alpha virt. eigenvalues --    1.63902   1.65515   1.67800   1.70330   1.72771
 Alpha virt. eigenvalues --    1.75102   1.78630   1.79304   1.80361   1.83876
 Alpha virt. eigenvalues --    1.85728   1.86997   1.89467   1.90886   1.92284
 Alpha virt. eigenvalues --    1.95240   1.95803   2.02365   2.02579   2.06513
 Alpha virt. eigenvalues --    2.10968   2.14541   2.14861   2.19850   2.20754
 Alpha virt. eigenvalues --    2.24975   2.32294   2.36441   2.42630   2.44035
 Alpha virt. eigenvalues --    2.49547   2.51517   2.53159   2.55936   2.59398
 Alpha virt. eigenvalues --    2.60782   2.62176   2.66234   2.67033   2.68432
 Alpha virt. eigenvalues --    2.71768   2.75334   2.77755   2.78950   2.83015
 Alpha virt. eigenvalues --    2.85388   2.86471   2.89875   2.91219   2.93853
 Alpha virt. eigenvalues --    2.94887   2.96524   2.96909   3.00205   3.01998
 Alpha virt. eigenvalues --    3.06093   3.07581   3.10551   3.16656   3.17672
 Alpha virt. eigenvalues --    3.26817   3.32607   3.36777   3.37074   3.39188
 Alpha virt. eigenvalues --    3.41395   3.48382   3.49614   3.57023   3.60381
 Alpha virt. eigenvalues --    3.62416   3.90327   3.91488   4.02577   4.07486
 Alpha virt. eigenvalues --    4.09555   4.13118   4.23247   4.25611   4.28247
 Alpha virt. eigenvalues --    4.41566   4.81819   4.93279   4.98730   4.99138
 Alpha virt. eigenvalues --    5.02795   5.09384   5.12059   5.35210   5.62473
 Alpha virt. eigenvalues --    5.66425   5.98983  23.83283  23.94205  23.98116
 Alpha virt. eigenvalues --   24.11444  24.15418  35.68994  49.98027  50.04398
 Alpha virt. eigenvalues --   50.11198
          Condensed to atoms (all electrons):
               1          2          3          4          5          6
     1  N    6.648907   0.374550   0.288501  -0.035438  -0.090033   0.003949
     2  H    0.374550   0.442749  -0.052100   0.008468   0.002181   0.004049
     3  C    0.288501  -0.052100   5.342770   0.395964   0.273719  -0.052634
     4  H   -0.035438   0.008468   0.395964   0.502851  -0.053425   0.009839
     5  C   -0.090033   0.002181   0.273719  -0.053425   5.229232   0.407786
     6  H    0.003949   0.004049  -0.052634   0.009839   0.407786   0.525002
     7  H    0.007153  -0.000016  -0.040576  -0.001847   0.403935  -0.018455
     8  C   -0.000976  -0.001752  -0.035853  -0.005368   0.242638  -0.059286
     9  H   -0.001057  -0.000019  -0.000965   0.002505  -0.043987   0.009325
    10  H    0.012151   0.001406  -0.011605   0.000709  -0.035218  -0.003847
    11  C    0.000885   0.000047   0.003473  -0.000043  -0.036839  -0.002055
    12  O   -0.000004  -0.000007   0.000000  -0.000004   0.006400   0.008575
    13  O   -0.000002   0.000000  -0.000320  -0.000047  -0.001361   0.000338
    14  C   -0.036876  -0.006201   0.290054  -0.026838  -0.044415  -0.010119
    15  O   -0.001524   0.006319  -0.104127   0.004742   0.001228   0.021783
    16  H    0.384891  -0.035235  -0.038401  -0.010194  -0.007421  -0.002411
    17  H    0.003773   0.001282  -0.084698   0.002701   0.007851   0.002182
    18  H   -0.000007   0.000000   0.000035  -0.000006  -0.000175  -0.000142
               7          8          9         10         11         12
     1  N    0.007153  -0.000976  -0.001057   0.012151   0.000885  -0.000004
     2  H   -0.000016  -0.001752  -0.000019   0.001406   0.000047  -0.000007
     3  C   -0.040576  -0.035853  -0.000965  -0.011605   0.003473   0.000000
     4  H   -0.001847  -0.005368   0.002505   0.000709  -0.000043  -0.000004
     5  C    0.403935   0.242638  -0.043987  -0.035218  -0.036839   0.006400
     6  H   -0.018455  -0.059286   0.009325  -0.003847  -0.002055   0.008575
     7  H    0.517973  -0.048558  -0.003025   0.011082  -0.002440  -0.001180
     8  C   -0.048558   5.430239   0.387884   0.379962   0.287146  -0.108787
     9  H   -0.003025   0.387884   0.497537  -0.018089  -0.030476   0.004354
    10  H    0.011082   0.379962  -0.018089   0.487039  -0.016092   0.005208
    11  C   -0.002440   0.287146  -0.030476  -0.016092   4.383588   0.633412
    12  O   -0.001180  -0.108787   0.004354   0.005208   0.633412   8.061156
    13  O    0.004479  -0.096057   0.001646   0.004010   0.374567  -0.085601
    14  C   -0.003519   0.006483   0.000100  -0.000208  -0.000155   0.000005
    15  O   -0.000546  -0.000087  -0.000024  -0.000083   0.000011  -0.000000
    16  H   -0.000263   0.005996  -0.000456  -0.000218   0.000072  -0.000047
    17  H   -0.000336  -0.000322  -0.000034  -0.000048   0.000010   0.000000
    18  H    0.000517  -0.003289   0.001989   0.000063  -0.024895   0.002929
              13         14         15         16         17         18
     1  N   -0.000002  -0.036876  -0.001524   0.384891   0.003773  -0.000007
     2  H    0.000000  -0.006201   0.006319  -0.035235   0.001282   0.000000
     3  C   -0.000320   0.290054  -0.104127  -0.038401  -0.084698   0.000035
     4  H   -0.000047  -0.026838   0.004742  -0.010194   0.002701  -0.000006
     5  C   -0.001361  -0.044415   0.001228  -0.007421   0.007851  -0.000175
     6  H    0.000338  -0.010119   0.021783  -0.002411   0.002182  -0.000142
     7  H    0.004479  -0.003519  -0.000546  -0.000263  -0.000336   0.000517
     8  C   -0.096057   0.006483  -0.000087   0.005996  -0.000322  -0.003289
     9  H    0.001646   0.000100  -0.000024  -0.000456  -0.000034   0.001989
    10  H    0.004010  -0.000208  -0.000083  -0.000218  -0.000048   0.000063
    11  C    0.374567  -0.000155   0.000011   0.000072   0.000010  -0.024895
    12  O   -0.085601   0.000005  -0.000000  -0.000047   0.000000   0.002929
    13  O    7.783509  -0.000000  -0.000000  -0.000020  -0.000000   0.331270
    14  C   -0.000000   4.586341   0.557095   0.006679   0.430207  -0.000004
    15  O   -0.000000   0.557095   7.962156  -0.000608  -0.045037  -0.000000
    16  H   -0.000020   0.006679  -0.000608   0.449304  -0.000722   0.000004
    17  H   -0.000000   0.430207  -0.045037  -0.000722   0.522164   0.000000
    18  H    0.331270  -0.000004  -0.000000   0.000004   0.000000   0.332651
 Mulliken charges:
               1
     1  N   -0.558841
     2  H    0.254278
     3  C   -0.173236
     4  H    0.205430
     5  C   -0.262096
     6  H    0.156118
     7  H    0.175623
     8  C   -0.380015
     9  H    0.192792
    10  H    0.183778
    11  C    0.429783
    12  O   -0.526409
    13  O   -0.316412
    14  C    0.251371
    15  O   -0.401299
    16  H    0.249048
    17  H    0.161027
    18  H    0.359059
 Sum of Mulliken charges =  -0.00000
 Mulliken charges with hydrogens summed into heavy atoms:
               1
     1  N   -0.055514
     3  C    0.032194
     5  C    0.069646
     8  C   -0.003446
    11  C    0.429783
    12  O   -0.526409
    13  O    0.042647
    14  C    0.412399
    15  O   -0.401299
 Electronic spatial extent (au):  <R**2>=           1653.5804
 Charge=             -0.0000 electrons
 Dipole moment (field-independent basis, Debye):
    X=              1.0065    Y=              6.9148    Z=              4.9720  Tot=              8.5761
 Quadrupole moment (field-independent basis, Debye-Ang):
   XX=            -70.3435   YY=            -59.2920   ZZ=            -46.9400
   XY=             -8.9013   XZ=             -5.1806   YZ=             -2.5151
 Traceless Quadrupole moment (field-independent basis, Debye-Ang):
   XX=            -11.4850   YY=             -0.4335   ZZ=             11.9185
   XY=             -8.9013   XZ=             -5.1806   YZ=             -2.5151
 Octapole moment (field-independent basis, Debye-Ang**2):
  XXX=             22.3729  YYY=              9.5677  ZZZ=              7.8802  XYY=            -21.6611
  XXY=             39.9614  XXZ=             36.4689  XZZ=              5.5500  YZZ=             10.0125
  YYZ=              6.9697  XYZ=             -3.0843
 Hexadecapole moment (field-independent basis, Debye-Ang**3):
 XXXX=          -1718.4269 YYYY=           -318.9496 ZZZZ=           -154.4917 XXXY=            -72.2194
 XXXZ=            -22.1169 YYYX=            -20.8427 YYYZ=             -1.2879 ZZZX=            -36.6834
 ZZZY=             -0.2286 XXYY=           -379.8088 XXZZ=           -253.1924 YYZZ=            -72.2089
 XXYZ=             -7.6617 YYXZ=            -13.5100 ZZXY=            -18.6818
 N-N= 4.505993906020D+02 E-N=-2.017321305606D+03  KE= 4.756990466625D+02
 D1PCM: PCM CHGder 1st derivatives, ID1Alg=3 FixD1E=F DoIter=F DoCFld=F I1PDM=0.
 Calling FoFJK, ICntrl=      2127 FMM=F ISym2X=0 I1Cent= 0 IOpClX= 0 NMat=1 NMatS=1 NMatT=0.
 ***** Axes restored to original set *****
 -------------------------------------------------------------------
 Center     Atomic                   Forces (Hartrees/Bohr)
 Number     Number              X              Y              Z
 -------------------------------------------------------------------
      1        7          -0.017065087   -0.013281758   -0.011191699
      2        1           0.014884984    0.008669931    0.006616280
      3        6           0.067773272    0.026454481   -0.022241833
      4        1          -0.069129397   -0.032370985    0.021541573
      5        6          -0.032044089   -0.008950154   -0.048908374
      6        1           0.064661178    0.045914540   -0.001283738
      7        1          -0.016517137   -0.008679830    0.078215065
      8        6           0.037942643    0.018743567    0.063336787
      9        1          -0.064419148   -0.046124958   -0.007086600
     10        1           0.033113315    0.008746812   -0.070423322
     11        6           0.048856279    0.062871610   -0.041437796
     12        8          -0.051915759   -0.007118195   -0.005629541
     13        8           0.020541954   -0.054733372    0.051329594
     14        6           0.051165557   -0.017088506   -0.012423957
     15        8          -0.005500650   -0.006720054   -0.003001168
     16        1          -0.002445510    0.005598191   -0.002090733
     17        1          -0.047691473    0.016972881    0.013827942
     18        1          -0.032210934    0.001095799   -0.009148480
 -------------------------------------------------------------------
 Cartesian Forces:  Max     0.078215065 RMS     0.036383639

 GradGradGradGradGradGradGradGradGradGradGradGradGradGradGradGradGradGrad
 Berny optimization.
 FormGI is forming the generalized inverse of G from B-inverse, IUseBI=4.
 GSVD:  received Info=                   1 from GESDD.
 Internal  Forces:  Max     0.080226921 RMS     0.023489820
 Search for a local minimum.
 Step number   1 out of a maximum of   93
 All quantities printed in internal units (Hartrees-Bohrs-Radians)
 Mixed Optimization -- RFO/linear search
 Second derivative matrix not updated -- first step.
 ITU=  0
     Eigenvalues ---    0.00325   0.00335   0.00471   0.00471   0.00684
     Eigenvalues ---    0.00914   0.01073   0.03391   0.03576   0.03694
     Eigenvalues ---    0.04254   0.04499   0.04928   0.05121   0.05660
     Eigenvalues ---    0.06646   0.08856   0.08976   0.12522   0.12640
     Eigenvalues ---    0.16000   0.16000   0.16000   0.16000   0.17893
     Eigenvalues ---    0.18520   0.22000   0.22008   0.22124   0.24999
     Eigenvalues ---    0.25000   0.29121   0.29189   0.30149   0.31738
     Eigenvalues ---    0.37114   0.42477   0.44338   0.47597   0.47650
     Eigenvalues ---    0.47651   0.47703   0.47726   0.47749   0.60729
     Eigenvalues ---    0.80516   0.81255   0.97003
 RFO step:  Lambda=-8.33016713D-02 EMin= 3.25464743D-03
 Linear search not attempted -- first point.
 Maximum step size (   0.300) exceeded in Quadratic search.
    -- Step size scaled by   0.749
 Iteration  1 RMS(Cart)=  0.04632273 RMS(Int)=  0.00096391
 Iteration  2 RMS(Cart)=  0.00105982 RMS(Int)=  0.00012874
 Iteration  3 RMS(Cart)=  0.00000076 RMS(Int)=  0.00012874
 Variable       Old X    -DE/DX   Delta X   Delta X   Delta X     New X
                                 (Linear)    (Quad)   (Total)
    R1        1.89014   0.01236   0.00000   0.01653   0.01653   1.90667
    R2        2.75675   0.00665   0.00000   0.01096   0.01096   2.76771
    R3        1.92752  -0.00481   0.00000  -0.00683  -0.00683   1.92068
    R4        1.88907   0.07851   0.00000   0.10485   0.10485   1.99393
    R5        2.89610   0.00352   0.00000   0.00702   0.00702   2.90312
    R6        2.87666  -0.00685   0.00000  -0.01333  -0.01333   2.86333
    R7        1.89071   0.07920   0.00000   0.10606   0.10606   1.99677
    R8        1.89013   0.08023   0.00000   0.10733   0.10733   1.99747
    R9        2.84626   0.02093   0.00000   0.03913   0.03913   2.88539
   R10        1.88932   0.07940   0.00000   0.10608   0.10608   1.99540
   R11        1.88957   0.07817   0.00000   0.10449   0.10449   1.99405
   R12        2.89752  -0.01350   0.00000  -0.02700  -0.02700   2.87052
   R13        2.37246  -0.05252   0.00000  -0.04391  -0.04391   2.32855
   R14        2.37639   0.06725   0.00000   0.05669   0.05669   2.43308
   R15        1.77068   0.03186   0.00000   0.03455   0.03455   1.80523
   R16        2.29863  -0.00855   0.00000  -0.00608  -0.00608   2.29255
   R17        1.95020   0.05233   0.00000   0.07715   0.07715   2.02734
    A1        2.07239  -0.02334   0.00000  -0.07377  -0.07368   1.99872
    A2        1.86936   0.00386   0.00000   0.00818   0.00836   1.87773
    A3        1.86937   0.01020   0.00000   0.02911   0.02921   1.89858
    A4        1.82198   0.00253   0.00000   0.01693   0.01647   1.83846
    A5        2.00176   0.00351   0.00000   0.01106   0.01078   2.01254
    A6        1.89003  -0.00343   0.00000  -0.01504  -0.01500   1.87504
    A7        1.85560   0.00391   0.00000   0.02189   0.02156   1.87716
    A8        1.96168  -0.00385   0.00000  -0.02246  -0.02230   1.93937
    A9        1.93149  -0.00241   0.00000  -0.01119  -0.01111   1.92038
   A10        1.88522   0.00527   0.00000   0.01131   0.01154   1.89676
   A11        1.88562   0.00355   0.00000   0.00430   0.00453   1.89015
   A12        2.03948  -0.01991   0.00000  -0.04900  -0.04884   1.99063
   A13        1.90995  -0.00450   0.00000  -0.01070  -0.01103   1.89892
   A14        1.87073   0.00737   0.00000   0.02091   0.02084   1.89157
   A15        1.87053   0.00844   0.00000   0.02386   0.02365   1.89418
   A16        1.90074   0.00524   0.00000   0.01948   0.01938   1.92012
   A17        1.90046   0.00456   0.00000   0.01456   0.01435   1.91482
   A18        1.92622  -0.00733   0.00000  -0.01870  -0.01865   1.90757
   A19        1.91058  -0.00142   0.00000  -0.00150  -0.00177   1.90881
   A20        1.91295   0.00032   0.00000  -0.00247  -0.00235   1.91060
   A21        1.91274  -0.00129   0.00000  -0.01101  -0.01094   1.90180
   A22        2.18311  -0.01350   0.00000  -0.03037  -0.03038   2.15273
   A23        2.00389   0.01694   0.00000   0.03804   0.03802   2.04192
   A24        2.09614  -0.00344   0.00000  -0.00776  -0.00778   2.08836
   A25        2.09439  -0.01839   0.00000  -0.05660  -0.05660   2.03780
   A26        2.12565  -0.00260   0.00000  -0.00642  -0.00645   2.11920
   A27        2.07877  -0.00202   0.00000  -0.00700  -0.00703   2.07174
   A28        2.07876   0.00462   0.00000   0.01342   0.01338   2.09214
    D1        2.97959  -0.00174   0.00000  -0.00409  -0.00415   2.97544
    D2       -1.28026   0.00639   0.00000   0.03885   0.03899  -1.24127
    D3        0.88623   0.00305   0.00000   0.02032   0.02039   0.90662
    D4       -1.18620  -0.00433   0.00000  -0.02023  -0.02038  -1.20658
    D5        0.83714   0.00380   0.00000   0.02272   0.02276   0.85989
    D6        3.00363   0.00046   0.00000   0.00419   0.00416   3.00779
    D7        1.28229  -0.00399   0.00000  -0.02208  -0.02217   1.26012
    D8       -2.93646  -0.00451   0.00000  -0.02625  -0.02643  -2.96289
    D9       -0.82706  -0.00422   0.00000  -0.02499  -0.02505  -0.85210
   D10       -2.99703   0.00349   0.00000   0.01861   0.01875  -2.97828
   D11       -0.93260   0.00297   0.00000   0.01444   0.01449  -0.91811
   D12        1.17681   0.00326   0.00000   0.01570   0.01587   1.19268
   D13       -0.86205  -0.00014   0.00000  -0.00148  -0.00147  -0.86352
   D14        1.20238  -0.00066   0.00000  -0.00565  -0.00574   1.19665
   D15       -2.97140  -0.00037   0.00000  -0.00439  -0.00435  -2.97575
   D16       -1.39443   0.00028   0.00000   0.00774   0.00773  -1.38671
   D17        1.74716  -0.00159   0.00000  -0.00815  -0.00816   1.73900
   D18        2.88523   0.00142   0.00000   0.00874   0.00873   2.89396
   D19       -0.25636  -0.00045   0.00000  -0.00715  -0.00716  -0.26352
   D20        0.81352   0.00063   0.00000   0.00335   0.00337   0.81689
   D21       -2.32807  -0.00124   0.00000  -0.01255  -0.01252  -2.34059
   D22       -0.86068  -0.00161   0.00000  -0.00838  -0.00846  -0.86914
   D23        1.22165   0.00241   0.00000   0.00972   0.00986   1.23150
   D24       -2.96132  -0.00080   0.00000  -0.00613  -0.00610  -2.96743
   D25       -2.97765  -0.00090   0.00000  -0.00665  -0.00660  -2.98425
   D26       -0.89533   0.00311   0.00000   0.01145   0.01172  -0.88361
   D27        1.20488  -0.00010   0.00000  -0.00440  -0.00424   1.20065
   D28        1.25667  -0.00371   0.00000  -0.01696  -0.01726   1.23941
   D29       -2.94419   0.00030   0.00000   0.00114   0.00105  -2.94314
   D30       -0.84398  -0.00290   0.00000  -0.01471  -0.01490  -0.85888
   D31       -1.29423   0.00118   0.00000   0.00829   0.00823  -1.28599
   D32        1.83677  -0.00007   0.00000  -0.00176  -0.00178   1.83498
   D33        2.89565  -0.00092   0.00000  -0.00254  -0.00258   2.89308
   D34       -0.25654  -0.00217   0.00000  -0.01259  -0.01259  -0.26913
   D35        0.79861   0.00142   0.00000   0.00765   0.00769   0.80629
   D36       -2.35359   0.00017   0.00000  -0.00240  -0.00233  -2.35591
   D37        0.01003   0.00079   0.00000   0.00582   0.00588   0.01591
   D38       -3.14159  -0.00047   0.00000  -0.00385  -0.00391   3.13769
         Item               Value     Threshold  Converged?
 Maximum Force            0.080227     0.000450     NO 
 RMS     Force            0.023490     0.000300     NO 
 Maximum Displacement     0.153741     0.001800     NO 
 RMS     Displacement     0.046351     0.001200     NO 
 Predicted change in Energy=-4.307819D-02
 GradGradGradGradGradGradGradGradGradGradGradGradGradGradGradGradGradGrad

                          Input orientation:                          
 ---------------------------------------------------------------------
 Center     Atomic      Atomic             Coordinates (Angstroms)
 Number     Number       Type             X           Y           Z
 ---------------------------------------------------------------------
      1          7           0       14.349746   25.909094    9.216335
      2          1           0       15.059524   26.529091    8.856019
      3          6           0       14.323827   25.798270   10.676517
      4          1           0       13.442725   25.262563   10.900122
      5          6           0       15.501849   25.032754   11.298092
      6          1           0       16.369750   25.631195   11.226540
      7          1           0       15.286864   24.865187   12.319356
      8          6           0       15.788792   23.687359   10.635559
      9          1           0       14.897375   23.127285   10.553930
     10          1           0       16.193298   23.843466    9.673545
     11          6           0       16.794557   22.918723   11.475222
     12          8           0       17.992096   23.204253   11.527398
     13          8           0       16.342555   21.937405   12.175536
     14          6           0       14.264908   27.204575   11.237494
     15          8           0       15.258500   27.896195   11.316309
     16          1           0       14.517375   24.987803    8.821172
     17          1           0       13.316867   27.593039   11.555719
     18          1           0       15.407523   21.754383   12.106285
 ---------------------------------------------------------------------
                    Distance matrix (angstroms):
                    1          2          3          4          5
     1  N    0.000000
     2  H    1.008964   0.000000
     3  C    1.464611   2.095129   0.000000
     4  H    2.018868   2.897670   1.055141   0.000000
     5  C    2.535552   2.897999   1.536264   2.109783   0.000000
     6  H    2.863314   2.853468   2.125145   2.968150   1.056647
     7  H    3.405388   3.849021   2.120614   2.360716   1.057013
     8  C    3.003523   3.431331   2.569775   2.838184   1.526883
     9  H    3.134888   3.805454   2.734620   2.606774   2.133068
    10  H    2.806162   3.027603   2.884811   3.329262   2.128770
    11  C    4.474593   4.785950   3.877399   4.130267   2.484269
    12  O    5.091550   5.175982   4.572650   5.032584   3.097955
    13  O    5.338770   5.809384   4.607451   4.592644   3.325339
    14  C    2.402198   2.599830   1.515210   2.135700   2.500101
    15  O    3.030560   2.821630   2.384164   3.225875   2.873821
    16  H    1.016381   1.634231   2.033869   2.356352   2.665772
    17  H    3.061900   3.384852   2.237892   2.424204   3.375734
    18  H    5.170331   5.786464   4.423986   4.197927   3.377837
                    6          7          8          9         10
     6  H    0.000000
     7  H    1.718621   0.000000
     8  C    2.113118   2.115274   0.000000
     9  H    2.981587   2.507735   1.055921   0.000000
    10  H    2.374638   2.977558   1.055208   1.722617   0.000000
    11  C    2.756775   2.602772   1.519013   2.119333   2.112510
    12  O    2.934718   3.271725   2.425556   3.245129   2.661022
    13  O    3.813846   3.115619   2.395939   2.476684   3.148857
    14  C    2.627927   2.772644   3.880123   4.182293   4.178718
    15  O    2.524511   3.192791   4.296385   4.842947   4.471816
    16  H    3.103392   3.583914   2.568979   2.570676   2.201083
    17  H    3.643800   3.450392   4.712901   4.841957   5.086820
    18  H    4.090172   3.120426   2.458617   2.134225   3.301504
                   11         12         13         14         15
    11  C    0.000000
    12  O    1.232213   0.000000
    13  O    1.287529   2.178526   0.000000
    14  C    4.982385   5.475267   5.739305   0.000000
    15  O    5.211521   5.434282   6.117240   1.213168   0.000000
    16  H    4.063327   4.751673   4.887532   3.288834   3.903040
    17  H    5.826666   6.412489   6.444002   1.072825   1.979687
    18  H    1.917757   3.019479   0.955289   5.636041   6.194200
                   16         17         18
    16  H    0.000000
    17  H    3.963108   0.000000
    18  H    4.694606   6.226063   0.000000
 Stoichiometry    C5H9NO3
 Framework group  C1[X(C5H9NO3)]
 Deg. of freedom    48
 Full point group                 C1      NOp   1
 Largest Abelian subgroup         C1      NOp   1
 Largest concise Abelian subgroup C1      NOp   1
                         Standard orientation:                         
 ---------------------------------------------------------------------
 Center     Atomic      Atomic             Coordinates (Angstroms)
 Number     Number       Type             X           Y           Z
 ---------------------------------------------------------------------
      1          7           0        1.876849    1.438618   -0.687532
      2          1           0        2.159865    0.975282   -1.537962
      3          6           0        1.505535    0.534016    0.402837
      4          1           0        1.400973    1.149999    1.253104
      5          6           0        0.179936   -0.218040    0.209684
      6          1           0        0.315027   -0.956320   -0.534088
      7          1           0       -0.067616   -0.693555    1.120662
      8          6           0       -0.987464    0.674689   -0.204545
      9          1           0       -1.048400    1.510939    0.437283
     10          1           0       -0.848343    1.004776   -1.197094
     11          6           0       -2.279715   -0.119771   -0.125055
     12          8           0       -2.591242   -0.989574   -0.940373
     13          8           0       -3.060907    0.132776    0.866758
     14          6           0        2.641212   -0.453214    0.580250
     15          8           0        2.769903   -1.408296   -0.156657
     16          1           0        1.079162    2.027973   -0.909763
     17          1           0        3.349791   -0.287208    1.368482
     18          1           0       -2.777460    0.812456    1.475256
 ---------------------------------------------------------------------
 Rotational constants (GHZ):      3.3064031      0.7263144      0.6793239
 Standard basis: 6-311G(d,p) (5D, 7F)
 There are   225 symmetry adapted cartesian basis functions of A   symmetry.
 There are   216 symmetry adapted basis functions of A   symmetry.
   216 basis functions,   360 primitive gaussians,   225 cartesian basis functions
    35 alpha electrons       35 beta electrons
       nuclear repulsion energy       449.5373997043 Hartrees.
 NAtoms=   18 NActive=   18 NUniq=   18 SFac= 1.00D+00 NAtFMM=   60 NAOKFM=F Big=F
 Integral buffers will be    131072 words long.
 Raffenetti 2 integral format.
 Two-electron integral symmetry is turned on.
 ------------------------------------------------------------------------------
 Polarizable Continuum Model (PCM)
 =================================
 Model                : PCM (using non-symmetric T matrix).
 Atomic radii         : SMD-Coulomb.
 Polarization charges : Total charges.
 Charge compensation  : None.
 Solution method      : On-the-fly selection.
 Cavity type          : VdW (van der Waals Surface) (Alpha=1.000).
 Cavity algorithm     : GePol (No added spheres)
                        Default sphere list used, NSphG=   18.
                        Lebedev-Laikov grids with approx.  5.0 points / Ang**2.
                        Smoothing algorithm: York/Karplus (Gamma=1.0000).
                        Polarization charges: spherical gaussians, with
                                              point-specific exponents (IZeta= 3).
                        Self-potential: point-specific (ISelfS= 7).
                        Self-field    : sphere-specific E.n sum rule (ISelfD= 2).
 1st derivatives      : Analytical E(r).r(x)/FMM algorithm (CHGder, D1EAlg=3).
                        Cavity 1st derivative terms included.
 Solvent              : Water, Eps=  78.355300 Eps(inf)=   1.777849
 ------------------------------------------------------------------------------
 Spheres list:
 ISph  on   Nord     Re0    Alpha      Xe            Ye            Ze
    1   N      1    1.8900  1.000      1.876849      1.438618     -0.687532
    2   H      2    1.2000  1.000      2.159865      0.975282     -1.537962
    3   C      3    1.8500  1.000      1.505535      0.534016      0.402837
    4   H      4    1.2000  1.000      1.400973      1.149999      1.253104
    5   C      5    1.8500  1.000      0.179936     -0.218040      0.209684
    6   H      6    1.2000  1.000      0.315027     -0.956320     -0.534088
    7   H      7    1.2000  1.000     -0.067616     -0.693555      1.120662
    8   C      8    1.8500  1.000     -0.987464      0.674689     -0.204545
    9   H      9    1.2000  1.000     -1.048400      1.510939      0.437283
   10   H     10    1.2000  1.000     -0.848343      1.004776     -1.197094
   11   C     11    1.8500  1.000     -2.279715     -0.119771     -0.125055
   12   O     12    1.5200  1.000     -2.591242     -0.989574     -0.940373
   13   O     13    1.5200  1.000     -3.060907      0.132776      0.866758
   14   C     14    1.8500  1.000      2.641212     -0.453214      0.580250
   15   O     15    1.5200  1.000      2.769903     -1.408296     -0.156657
   16   H     16    1.2000  1.000      1.079162      2.027973     -0.909763
   17   H     17    1.2000  1.000      3.349791     -0.287208      1.368482
   18   H     18    1.2000  1.000     -2.777460      0.812456      1.475256
 ------------------------------------------------------------------------------
 ------------------------------------------------------------------------------
 Atomic radii for non-electrostatic terms: SMD-CDS.
 ------------------------------------------------------------------------------
 Nuclear repulsion after PCM non-electrostatic terms =      449.5452767133 Hartrees.
 One-electron integrals computed using PRISM.
 NBasis=   216 RedAO= T EigKep=  1.24D-03  NBF=   216
 NBsUse=   216 1.00D-06 EigRej= -1.00D+00 NBFU=   216
 Initial guess from the checkpoint file:  "glh_opt.chk"
 B after Tr=     0.000000   -0.000000   -0.000000
         Rot=    0.999974   -0.006660    0.001861   -0.002065 Ang=  -0.83 deg.
 ExpMin= 1.03D-01 ExpMax= 8.59D+03 ExpMxC= 1.30D+03 IAcc=1 IRadAn=         1 AccDes= 0.00D+00
 Harris functional with IExCor= 1009 and IRadAn=       1 diagonalized for initial guess.
 HarFok:  IExCor= 1009 AccDes= 0.00D+00 IRadAn=         1 IDoV= 1 UseB2=F ITyADJ=14
 ICtDFT=  3500011 ScaDFX=  1.000000  1.000000  1.000000  1.000000
 FoFCou: FMM=F IPFlag=           0 FMFlag=      100000 FMFlg1=           0
         NFxFlg=           0 DoJE=T BraDBF=F KetDBF=T FulRan=T
         wScrn=  0.000000 ICntrl=     500 IOpCl=  0 I1Cent=   200000004 NGrid=           0
         NMat0=    1 NMatS0=      1 NMatT0=    0 NMatD0=    1 NMtDS0=    0 NMtDT0=    0
 Petite list used in FoFCou.
 Requested convergence on RMS density matrix=1.00D-08 within 128 cycles.
 Requested convergence on MAX density matrix=1.00D-06.
 Requested convergence on             energy=1.00D-06.
 No special actions if energy rises.
 Inv3:  Mode=1 IEnd=     5346675.
 Iteration    1 A*A^-1 deviation from unit magnitude is 3.11D-15 for    730.
 Iteration    1 A*A^-1 deviation from orthogonality  is 3.55D-15 for    730    443.
 Iteration    1 A^-1*A deviation from unit magnitude is 2.66D-15 for   1328.
 Iteration    1 A^-1*A deviation from orthogonality  is 2.76D-12 for   1131   1112.
 Error on total polarization charges =  0.03641
 SCF Done:  E(RM062X) =  -476.318136436     A.U. after   13 cycles
            NFock= 13  Conv=0.37D-08     -V/T= 2.0025
 SMD-CDS (non-electrostatic) energy       (kcal/mol) =       4.94
 (included in total energy above)
 D1PCM: PCM CHGder 1st derivatives, ID1Alg=3 FixD1E=F DoIter=F DoCFld=F I1PDM=0.
 Calling FoFJK, ICntrl=      2127 FMM=F ISym2X=0 I1Cent= 0 IOpClX= 0 NMat=1 NMatS=1 NMatT=0.
 ***** Axes restored to original set *****
 -------------------------------------------------------------------
 Center     Atomic                   Forces (Hartrees/Bohr)
 Number     Number              X              Y              Z
 -------------------------------------------------------------------
      1        7          -0.009929919   -0.001868121   -0.005223719
      2        1           0.008446344    0.002164602    0.005320924
      3        6           0.026030047    0.000573033   -0.011465542
      4        1          -0.024060980   -0.008545040    0.009720635
      5        6          -0.009571487   -0.002174843   -0.017668520
      6        1           0.021799526    0.014798138    0.000119659
      7        1          -0.005159510   -0.001839846    0.026648914
      8        6           0.011264245    0.005810498    0.024360350
      9        1          -0.022379006   -0.014591193   -0.003161196
     10        1           0.011498521    0.001798489   -0.023004092
     11        6           0.026913758    0.037374996   -0.027485570
     12        8          -0.025493357   -0.004629760   -0.001162614
     13        8           0.005441463   -0.032815808    0.029982633
     14        6           0.020230496   -0.003946079   -0.003789458
     15        8          -0.004488429   -0.003236457   -0.001193077
     16        1          -0.001077874    0.002233433   -0.000760859
     17        1          -0.017857189    0.005957426    0.004189370
     18        1          -0.011606649    0.002936534   -0.005427839
 -------------------------------------------------------------------
 Cartesian Forces:  Max     0.037374996 RMS     0.015124411

 GradGradGradGradGradGradGradGradGradGradGradGradGradGradGradGradGradGrad
 Berny optimization.
 Using GEDIIS/GDIIS optimizer.
 FormGI is forming the generalized inverse of G from B-inverse, IUseBI=4.
 Internal  Forces:  Max     0.038281656 RMS     0.009169731
 Search for a local minimum.
 Step number   2 out of a maximum of   93
 All quantities printed in internal units (Hartrees-Bohrs-Radians)
 Mixed Optimization -- RFO/linear search
 Update second derivatives using D2CorX and points    1    2
 DE= -4.24D-02 DEPred=-4.31D-02 R= 9.83D-01
 TightC=F SS=  1.41D+00  RLast= 3.12D-01 DXNew= 5.0454D-01 9.3500D-01
 Trust test= 9.83D-01 RLast= 3.12D-01 DXMaxT set to 5.05D-01
 ITU=  1  0
 Use linear search instead of GDIIS.
     Eigenvalues ---    0.00325   0.00335   0.00471   0.00473   0.00684
     Eigenvalues ---    0.00914   0.01092   0.03576   0.03610   0.03974
     Eigenvalues ---    0.04340   0.04593   0.04972   0.05038   0.05631
     Eigenvalues ---    0.06742   0.08558   0.08790   0.12342   0.12405
     Eigenvalues ---    0.15694   0.16000   0.16000   0.16024   0.17691
     Eigenvalues ---    0.18466   0.21958   0.21987   0.22122   0.24996
     Eigenvalues ---    0.25136   0.29059   0.29203   0.30172   0.31898
     Eigenvalues ---    0.37129   0.42478   0.44335   0.47571   0.47617
     Eigenvalues ---    0.47669   0.47709   0.47740   0.49981   0.60630
     Eigenvalues ---    0.77151   0.81096   0.96965
 RFO step:  Lambda=-7.93235374D-03 EMin= 3.25464611D-03
 Quartic linear search produced a step of  0.76105.
 Iteration  1 RMS(Cart)=  0.09996294 RMS(Int)=  0.00838033
 Iteration  2 RMS(Cart)=  0.00868039 RMS(Int)=  0.00099951
 Iteration  3 RMS(Cart)=  0.00012002 RMS(Int)=  0.00099115
 Iteration  4 RMS(Cart)=  0.00000027 RMS(Int)=  0.00099115
 Variable       Old X    -DE/DX   Delta X   Delta X   Delta X     New X
                                 (Linear)    (Quad)   (Total)
    R1        1.90667   0.00538   0.01258   0.00260   0.01518   1.92185
    R2        2.76771   0.00079   0.00834  -0.00767   0.00067   2.76839
    R3        1.92068  -0.00192  -0.00520  -0.00049  -0.00569   1.91500
    R4        1.99393   0.02649   0.07980  -0.01127   0.06853   2.06245
    R5        2.90312   0.00002   0.00534  -0.00720  -0.00186   2.90126
    R6        2.86333  -0.00133  -0.01015   0.00634  -0.00381   2.85952
    R7        1.99677   0.02628   0.08072  -0.01300   0.06772   2.06449
    R8        1.99747   0.02709   0.08169  -0.01144   0.07024   2.06771
    R9        2.88539   0.00544   0.02978  -0.01134   0.01844   2.90383
   R10        1.99540   0.02688   0.08073  -0.01109   0.06964   2.06504
   R11        1.99405   0.02566   0.07952  -0.01383   0.06569   2.05974
   R12        2.87052  -0.00689  -0.02055  -0.01219  -0.03273   2.83779
   R13        2.32855  -0.02590  -0.03342  -0.01124  -0.04466   2.28388
   R14        2.43308   0.03828   0.04315   0.02560   0.06874   2.50182
   R15        1.80523   0.01120   0.02629  -0.00306   0.02324   1.82847
   R16        2.29255  -0.00560  -0.00463  -0.00396  -0.00858   2.28397
   R17        2.02734   0.01919   0.05871  -0.00131   0.05740   2.08475
    A1        1.99872  -0.01392  -0.05607  -0.08289  -0.14053   1.85819
    A2        1.87773   0.00241   0.00636  -0.01872  -0.01581   1.86192
    A3        1.89858   0.00447   0.02223  -0.00525   0.01552   1.91410
    A4        1.83846   0.00256   0.01254   0.05313   0.06226   1.90072
    A5        2.01254   0.00145   0.00820   0.00774   0.01380   2.02634
    A6        1.87504  -0.00342  -0.01141  -0.03730  -0.04839   1.82665
    A7        1.87716   0.00154   0.01641   0.03251   0.04632   1.92348
    A8        1.93937  -0.00303  -0.01697  -0.05490  -0.07046   1.86891
    A9        1.92038   0.00076  -0.00846  -0.00263  -0.01077   1.90961
   A10        1.89676   0.00260   0.00878   0.00911   0.01840   1.91516
   A11        1.89015   0.00174   0.00345  -0.00070   0.00304   1.89319
   A12        1.99063  -0.00835  -0.03717  -0.01129  -0.04815   1.94248
   A13        1.89892  -0.00217  -0.00839  -0.00745  -0.01637   1.88255
   A14        1.89157   0.00299   0.01586   0.00791   0.02382   1.91539
   A15        1.89418   0.00329   0.01800   0.00224   0.01978   1.91396
   A16        1.92012   0.00126   0.01475   0.00482   0.01939   1.93951
   A17        1.91482   0.00242   0.01092   0.00325   0.01326   1.92808
   A18        1.90757  -0.00322  -0.01419  -0.00574  -0.02008   1.88749
   A19        1.90881  -0.00080  -0.00135  -0.00179  -0.00330   1.90551
   A20        1.91060   0.00192  -0.00179   0.03090   0.02937   1.93997
   A21        1.90180  -0.00160  -0.00833  -0.03171  -0.03996   1.86184
   A22        2.15273  -0.00418  -0.02312   0.00320  -0.02084   2.13188
   A23        2.04192   0.00571   0.02894  -0.00172   0.02627   2.06819
   A24        2.08836  -0.00154  -0.00592  -0.00278  -0.00966   2.07870
   A25        2.03780  -0.01246  -0.04307  -0.06831  -0.11138   1.92642
   A26        2.11920   0.00048  -0.00491   0.01017   0.00268   2.12188
   A27        2.07174  -0.00191  -0.00535  -0.01209  -0.02002   2.05172
   A28        2.09214   0.00141   0.01018   0.00027   0.00784   2.09998
    D1        2.97544  -0.00012  -0.00316   0.10150   0.09605   3.07148
    D2       -1.24127   0.00438   0.02967   0.18276   0.21216  -1.02911
    D3        0.90662   0.00373   0.01552   0.15595   0.17108   1.07770
    D4       -1.20658  -0.00298  -0.01551   0.01882   0.00299  -1.20359
    D5        0.85989   0.00152   0.01732   0.10008   0.11910   0.97900
    D6        3.00779   0.00087   0.00317   0.07327   0.07802   3.08581
    D7        1.26012  -0.00308  -0.01687  -0.11239  -0.12976   1.13036
    D8       -2.96289  -0.00326  -0.02012  -0.11661  -0.13734  -3.10023
    D9       -0.85210  -0.00326  -0.01906  -0.12163  -0.14104  -0.99314
   D10       -2.97828   0.00208   0.01427  -0.01839  -0.00363  -2.98190
   D11       -0.91811   0.00190   0.01102  -0.02261  -0.01120  -0.92931
   D12        1.19268   0.00190   0.01208  -0.02763  -0.01490   1.17778
   D13       -0.86352  -0.00020  -0.00112  -0.06668  -0.06783  -0.93135
   D14        1.19665  -0.00038  -0.00437  -0.07090  -0.07541   1.12124
   D15       -2.97575  -0.00039  -0.00331  -0.07592  -0.07911  -3.05486
   D16       -1.38671   0.00031   0.00588   0.05833   0.06447  -1.32224
   D17        1.73900  -0.00084  -0.00621  -0.06200  -0.06773   1.67127
   D18        2.89396   0.00079   0.00665   0.04494   0.05092   2.94488
   D19       -0.26352  -0.00036  -0.00545  -0.07539  -0.08128  -0.34479
   D20        0.81689   0.00029   0.00257   0.04083   0.04347   0.86036
   D21       -2.34059  -0.00086  -0.00953  -0.07950  -0.08873  -2.42932
   D22       -0.86914  -0.00014  -0.00644  -0.01730  -0.02388  -0.89301
   D23        1.23150   0.00119   0.00750  -0.01443  -0.00670   1.22480
   D24       -2.96743  -0.00126  -0.00464  -0.05470  -0.05937  -3.02680
   D25       -2.98425  -0.00013  -0.00502  -0.02723  -0.03213  -3.01638
   D26       -0.88361   0.00120   0.00892  -0.02435  -0.01496  -0.89857
   D27        1.20065  -0.00125  -0.00322  -0.06463  -0.06763   1.13302
   D28        1.23941  -0.00102  -0.01314  -0.02399  -0.03758   1.20183
   D29       -2.94314   0.00030   0.00080  -0.02112  -0.02040  -2.96354
   D30       -0.85888  -0.00215  -0.01134  -0.06139  -0.07307  -0.93195
   D31       -1.28599   0.00066   0.00626   0.04146   0.04727  -1.23872
   D32        1.83498  -0.00034  -0.00136  -0.03230  -0.03389   1.80109
   D33        2.89308  -0.00008  -0.00196   0.02008   0.01789   2.91096
   D34       -0.26913  -0.00107  -0.00958  -0.05368  -0.06327  -0.33240
   D35        0.80629   0.00072   0.00585   0.02292   0.02913   0.83542
   D36       -2.35591  -0.00028  -0.00177  -0.05084  -0.05204  -2.40795
   D37        0.01591   0.00070   0.00447   0.04206   0.04679   0.06270
   D38        3.13769  -0.00030  -0.00298  -0.02877  -0.03200   3.10568
         Item               Value     Threshold  Converged?
 Maximum Force            0.038282     0.000450     NO 
 RMS     Force            0.009170     0.000300     NO 
 Maximum Displacement     0.380627     0.001800     NO 
 RMS     Displacement     0.098684     0.001200     NO 
 Predicted change in Energy=-9.663358D-03
 GradGradGradGradGradGradGradGradGradGradGradGradGradGradGradGradGradGrad

                          Input orientation:                          
 ---------------------------------------------------------------------
 Center     Atomic      Atomic             Coordinates (Angstroms)
 Number     Number       Type             X           Y           Z
 ---------------------------------------------------------------------
      1          7           0       14.412110   25.983390    9.212345
      2          1           0       15.260943   26.518136    9.045560
      3          6           0       14.334774   25.767713   10.659284
      4          1           0       13.398376   25.257257   10.891135
      5          6           0       15.516708   25.022239   11.295198
      6          1           0       16.425375   25.621013   11.198687
      7          1           0       15.311560   24.893196   12.362203
      8          6           0       15.728077   23.648674   10.639522
      9          1           0       14.796284   23.078518   10.610529
     10          1           0       16.108283   23.765167    9.624679
     11          6           0       16.786431   22.918180   11.414984
     12          8           0       17.949627   23.244407   11.380116
     13          8           0       16.411064   21.960264   12.248186
     14          6           0       14.240973   27.158013   11.249217
     15          8           0       15.206856   27.880826   11.322613
     16          1           0       14.531069   25.094322    8.740827
     17          1           0       13.235033   27.547510   11.480360
     18          1           0       15.454587   21.823815   12.195705
 ---------------------------------------------------------------------
                    Distance matrix (angstroms):
                    1          2          3          4          5
     1  N    0.000000
     2  H    1.016999   0.000000
     3  C    1.464968   2.006248   0.000000
     4  H    2.091234   2.909488   1.091403   0.000000
     5  C    2.546021   2.713668   1.535280   2.169293   0.000000
     6  H    2.851333   2.607045   2.164044   3.064250   1.092483
     7  H    3.452410   3.693659   2.149145   2.440667   1.094183
     8  C    3.036362   3.315530   2.536140   2.842244   1.536642
     9  H    3.246658   3.807362   2.728945   2.603803   2.183079
    10  H    2.822681   2.938060   2.868088   3.342729   2.172746
    11  C    4.459206   4.571757   3.834259   4.150255   2.460408
    12  O    4.971446   4.836990   4.466971   5.000455   3.014464
    13  O    5.421963   5.688039   4.618686   4.667766   3.329227
    14  C    2.357514   2.511152   1.513193   2.109755   2.488201
    15  O    2.947052   2.654208   2.380290   3.215570   2.875462
    16  H    1.013372   1.628750   2.042662   2.435850   2.738886
    17  H    2.995976   3.330491   2.247503   2.370470   3.408418
    18  H    5.223912   5.656639   4.378230   4.209327   3.323355
                    6          7          8          9         10
     6  H    0.000000
     7  H    1.767504   0.000000
     8  C    2.165412   2.165630   0.000000
     9  H    3.076385   2.574283   1.092774   0.000000
    10  H    2.454019   3.066147   1.089970   1.778968   0.000000
    11  C    2.735407   2.640674   1.501691   2.152566   2.093433
    12  O    2.829225   3.262269   2.376383   3.250131   2.596786
    13  O    3.808246   3.134326   2.430021   2.557328   3.198772
    14  C    2.671429   2.741221   3.859878   4.166362   4.199687
    15  O    2.570389   3.165066   4.318494   4.872145   4.542488
    16  H    3.147519   3.709985   2.669788   2.762171   2.243981
    17  H    3.737513   3.483531   4.703530   4.813107   5.099532
    18  H    4.044155   3.077220   2.413838   2.126129   3.287300
                   11         12         13         14         15
    11  C    0.000000
    12  O    1.208580   0.000000
    13  O    1.323907   2.183974   0.000000
    14  C    4.948031   5.393288   5.720475   0.000000
    15  O    5.208785   5.387251   6.112271   1.208626   0.000000
    16  H    4.119874   4.698358   5.065399   3.261134   3.858357
    17  H    5.835014   6.383896   6.472561   1.103200   2.006008
    18  H    1.892345   2.984710   0.967585   5.551790   6.124626
                   16         17         18
    16  H    0.000000
    17  H    3.899087   0.000000
    18  H    4.846162   6.180519   0.000000
 Stoichiometry    C5H9NO3
 Framework group  C1[X(C5H9NO3)]
 Deg. of freedom    48
 Full point group                 C1      NOp   1
 Largest Abelian subgroup         C1      NOp   1
 Largest concise Abelian subgroup C1      NOp   1
                         Standard orientation:                         
 ---------------------------------------------------------------------
 Center     Atomic      Atomic             Coordinates (Angstroms)
 Number     Number       Type             X           Y           Z
 ---------------------------------------------------------------------
      1          7           0        1.903798    1.406232   -0.664394
      2          1           0        2.008785    0.819528   -1.488435
      3          6           0        1.473285    0.522925    0.422140
      4          1           0        1.417089    1.100733    1.346338
      5          6           0        0.160655   -0.239633    0.192812
      6          1           0        0.280035   -0.937454   -0.639243
      7          1           0       -0.062654   -0.823325    1.090962
      8          6           0       -1.000437    0.723416   -0.099881
      9          1           0       -1.060159    1.509751    0.656602
     10          1           0       -0.878626    1.179999   -1.082087
     11          6           0       -2.270145   -0.076768   -0.151131
     12          8           0       -2.515978   -0.835406   -1.059261
     13          8           0       -3.088319   -0.030587    0.888671
     14          6           0        2.607465   -0.465564    0.584246
     15          8           0        2.775224   -1.370356   -0.199327
     16          1           0        1.169565    2.072656   -0.873451
     17          1           0        3.363312   -0.252478    1.359060
     18          1           0       -2.756295    0.591501    1.551233
 ---------------------------------------------------------------------
 Rotational constants (GHZ):      3.3621981      0.7274774      0.6908112
 Standard basis: 6-311G(d,p) (5D, 7F)
 There are   225 symmetry adapted cartesian basis functions of A   symmetry.
 There are   216 symmetry adapted basis functions of A   symmetry.
   216 basis functions,   360 primitive gaussians,   225 cartesian basis functions
    35 alpha electrons       35 beta electrons
       nuclear repulsion energy       450.0993086312 Hartrees.
 NAtoms=   18 NActive=   18 NUniq=   18 SFac= 1.00D+00 NAtFMM=   60 NAOKFM=F Big=F
 Integral buffers will be    131072 words long.
 Raffenetti 2 integral format.
 Two-electron integral symmetry is turned on.
 ------------------------------------------------------------------------------
 Polarizable Continuum Model (PCM)
 =================================
 Model                : PCM (using non-symmetric T matrix).
 Atomic radii         : SMD-Coulomb.
 Polarization charges : Total charges.
 Charge compensation  : None.
 Solution method      : On-the-fly selection.
 Cavity type          : VdW (van der Waals Surface) (Alpha=1.000).
 Cavity algorithm     : GePol (No added spheres)
                        Default sphere list used, NSphG=   18.
                        Lebedev-Laikov grids with approx.  5.0 points / Ang**2.
                        Smoothing algorithm: York/Karplus (Gamma=1.0000).
                        Polarization charges: spherical gaussians, with
                                              point-specific exponents (IZeta= 3).
                        Self-potential: point-specific (ISelfS= 7).
                        Self-field    : sphere-specific E.n sum rule (ISelfD= 2).
 1st derivatives      : Analytical E(r).r(x)/FMM algorithm (CHGder, D1EAlg=3).
                        Cavity 1st derivative terms included.
 Solvent              : Water, Eps=  78.355300 Eps(inf)=   1.777849
 ------------------------------------------------------------------------------
 Spheres list:
 ISph  on   Nord     Re0    Alpha      Xe            Ye            Ze
    1   N      1    1.8900  1.000      1.903798      1.406232     -0.664394
    2   H      2    1.2000  1.000      2.008785      0.819528     -1.488435
    3   C      3    1.8500  1.000      1.473285      0.522925      0.422140
    4   H      4    1.2000  1.000      1.417089      1.100733      1.346338
    5   C      5    1.8500  1.000      0.160655     -0.239633      0.192812
    6   H      6    1.2000  1.000      0.280035     -0.937454     -0.639243
    7   H      7    1.2000  1.000     -0.062654     -0.823325      1.090962
    8   C      8    1.8500  1.000     -1.000437      0.723416     -0.099881
    9   H      9    1.2000  1.000     -1.060159      1.509751      0.656602
   10   H     10    1.2000  1.000     -0.878626      1.179999     -1.082087
   11   C     11    1.8500  1.000     -2.270145     -0.076768     -0.151131
   12   O     12    1.5200  1.000     -2.515978     -0.835406     -1.059261
   13   O     13    1.5200  1.000     -3.088319     -0.030587      0.888671
   14   C     14    1.8500  1.000      2.607465     -0.465564      0.584246
   15   O     15    1.5200  1.000      2.775224     -1.370356     -0.199327
   16   H     16    1.2000  1.000      1.169565      2.072656     -0.873451
   17   H     17    1.2000  1.000      3.363312     -0.252478      1.359060
   18   H     18    1.2000  1.000     -2.756295      0.591501      1.551233
 ------------------------------------------------------------------------------
 ------------------------------------------------------------------------------
 Atomic radii for non-electrostatic terms: SMD-CDS.
 ------------------------------------------------------------------------------
 Nuclear repulsion after PCM non-electrostatic terms =      450.1068553852 Hartrees.
 One-electron integrals computed using PRISM.
 NBasis=   216 RedAO= T EigKep=  1.23D-03  NBF=   216
 NBsUse=   216 1.00D-06 EigRej= -1.00D+00 NBFU=   216
 Initial guess from the checkpoint file:  "glh_opt.chk"
 B after Tr=    -0.000000    0.000000    0.000000
         Rot=    0.999421   -0.033919    0.002379   -0.000869 Ang=  -3.90 deg.
 ExpMin= 1.03D-01 ExpMax= 8.59D+03 ExpMxC= 1.30D+03 IAcc=1 IRadAn=         1 AccDes= 0.00D+00
 Harris functional with IExCor= 1009 and IRadAn=       1 diagonalized for initial guess.
 HarFok:  IExCor= 1009 AccDes= 0.00D+00 IRadAn=         1 IDoV= 1 UseB2=F ITyADJ=14
 ICtDFT=  3500011 ScaDFX=  1.000000  1.000000  1.000000  1.000000
 FoFCou: FMM=F IPFlag=           0 FMFlag=      100000 FMFlg1=           0
         NFxFlg=           0 DoJE=T BraDBF=F KetDBF=T FulRan=T
         wScrn=  0.000000 ICntrl=     500 IOpCl=  0 I1Cent=   200000004 NGrid=           0
         NMat0=    1 NMatS0=      1 NMatT0=    0 NMatD0=    1 NMtDS0=    0 NMtDT0=    0
 Petite list used in FoFCou.
 Requested convergence on RMS density matrix=1.00D-08 within 128 cycles.
 Requested convergence on MAX density matrix=1.00D-06.
 Requested convergence on             energy=1.00D-06.
 No special actions if energy rises.
 Inv3:  Mode=1 IEnd=     5386800.
 Iteration    1 A*A^-1 deviation from unit magnitude is 5.11D-15 for   1330.
 Iteration    1 A*A^-1 deviation from orthogonality  is 2.32D-15 for   1321    418.
 Iteration    1 A^-1*A deviation from unit magnitude is 5.33D-15 for   1330.
[...]
 ! D34   D(9,8,11,13)          -47.4531         -DE/DX =    0.0                 !
 ! D35   D(10,8,11,12)          16.1592         -DE/DX =    0.0                 !
 ! D36   D(10,8,11,13)        -165.7076         -DE/DX =    0.0                 !
 ! D37   D(8,11,13,18)           3.3674         -DE/DX =    0.0                 !
 ! D38   D(12,11,13,18)       -178.3839         -DE/DX =    0.0                 !
 --------------------------------------------------------------------------------
 GradGradGradGradGradGradGradGradGradGradGradGradGradGradGradGradGradGrad

                          Input orientation:                          
 ---------------------------------------------------------------------
 Center     Atomic      Atomic             Coordinates (Angstroms)
 Number     Number       Type             X           Y           Z
 ---------------------------------------------------------------------
      1          7           0       14.527257   26.088259    9.196330
      2          1           0       15.476530   26.414035    9.028335
      3          6           0       14.385688   25.782327   10.617989
      4          1           0       13.447497   25.223042   10.737853
      5          6           0       15.522846   24.987899   11.253599
      6          1           0       16.452410   25.559508   11.160090
      7          1           0       15.318764   24.862910   12.320180
      8          6           0       15.690816   23.616613   10.588395
      9          1           0       14.763618   23.043631   10.683967
     10          1           0       15.936977   23.725017    9.532817
     11          6           0       16.811214   22.852658   11.236557
     12          8           0       17.903006   22.687761   10.748638
     13          8           0       16.568082   22.356847   12.464074
     14          6           0       14.140098   27.079084   11.352587
     15          8           0       14.592358   27.345045   12.440804
     16          1           0       14.424292   25.233170    8.659569
     17          1           0       13.491141   27.793692   10.816492
     18          1           0       15.655537   22.531142   12.732875
 ---------------------------------------------------------------------
                    Distance matrix (angstroms):
                    1          2          3          4          5
     1  N    0.000000
     2  H    1.017581   0.000000
     3  C    1.461078   2.028790   0.000000
     4  H    2.071419   2.908245   1.098804   0.000000
     5  C    2.536602   2.643447   1.525859   2.151363   0.000000
     6  H    2.800383   2.495384   2.148223   3.053031   1.095248
     7  H    3.447666   3.642406   2.147885   2.476912   1.093099
     8  C    3.066064   3.210184   2.528745   2.763229   1.533341
     9  H    3.396865   3.822171   2.765437   2.546549   2.163582
    10  H    2.772264   2.774407   2.795822   3.145426   2.174274
    11  C    4.455121   4.397845   3.853410   4.145120   2.493880
    12  O    5.036738   4.767845   4.686676   5.126337   3.348250
    13  O    5.363446   5.427391   4.461478   4.575256   3.078994
    14  C    2.404386   2.762333   1.510473   2.074244   2.508953
    15  O    3.479994   3.646023   2.409866   2.951888   2.798464
    16  H    1.014836   1.624080   2.034323   2.296409   2.827715
    17  H    2.570401   3.007113   2.210251   2.572223   3.491614
    18  H    5.141327   5.369592   4.081111   4.012715   2.870804
                    6          7          8          9         10
     6  H    0.000000
     7  H    1.765279   0.000000
     8  C    2.163724   2.165815   0.000000
     9  H    3.067303   2.509015   1.094138   0.000000
    10  H    2.505802   3.073496   1.089309   1.779384   0.000000
    11  C    2.731597   2.728142   1.503008   2.129431   2.104289
    12  O    3.243524   3.725496   2.404626   3.160156   2.533651
    13  O    3.459883   2.803900   2.423794   2.626128   3.295824
    14  C    2.773617   2.690152   3.870067   4.137718   4.217832
    15  O    2.878918   2.589056   4.305721   4.649513   4.834149
    16  H    3.236103   3.786455   2.817394   3.001235   2.307662
    17  H    3.725420   3.767063   4.726372   4.919334   4.917729
    18  H    3.504234   2.391835   2.403806   2.292638   3.427086
                   11         12         13         14         15
    11  C    0.000000
    12  O    1.207172   0.000000
    13  O    1.346009   2.198692   0.000000
    14  C    5.001100   5.814460   5.424946   0.000000
    15  O    5.153162   5.959372   5.365273   1.208093   0.000000
    16  H    4.243242   4.790070   5.229085   3.277272   4.334282
    17  H    5.967676   6.748310   6.460757   1.104177   2.013045
    18  H    1.917793   3.002139   0.967146   4.988540   4.938554
                   16         17         18
    16  H    0.000000
    17  H    3.475537   0.000000
    18  H    5.040708   6.004296   0.000000
 Stoichiometry    C5H9NO3
 Framework group  C1[X(C5H9NO3)]
 Deg. of freedom    48
 Full point group                 C1      NOp   1
 Largest Abelian subgroup         C1      NOp   1
 Largest concise Abelian subgroup C1      NOp   1
                         Standard orientation:                         
 ---------------------------------------------------------------------
 Center     Atomic      Atomic             Coordinates (Angstroms)
 Number     Number       Type             X           Y           Z
 ---------------------------------------------------------------------
      1          7           0        1.825236    1.751765    0.018690
      2          1           0        1.604259    1.869275   -0.967632
      3          6           0        1.532838    0.371749    0.399227
      4          1           0        1.555235    0.325959    1.496848
      5          6           0        0.206438   -0.197814   -0.095248
      6          1           0        0.196969   -0.179358   -1.190300
      7          1           0        0.127377   -1.242261    0.217395
      8          6           0       -0.984979    0.602093    0.444947
      9          1           0       -0.978092    0.581687    1.538873
     10          1           0       -0.943247    1.636595    0.106336
     11          6           0       -2.277757    0.017193   -0.050686
     12          8           0       -2.962773    0.500988   -0.918994
     13          8           0       -2.660362   -1.148478    0.502995
     14          6           0        2.697703   -0.488191   -0.031031
     15          8           0        2.594483   -1.605487   -0.478786
     16          1           0        1.202990    2.375364    0.522500
     17          1           0        3.687905   -0.017628    0.100424
     18          1           0       -2.046295   -1.418344    1.199749
 ---------------------------------------------------------------------
 Rotational constants (GHZ):      2.9937778      0.7674046      0.6662201

 **********************************************************************

            Population analysis using the SCF density.

 **********************************************************************

 Orbital symmetries:
       Occupied  (A) (A) (A) (A) (A) (A) (A) (A) (A) (A) (A) (A)
                 (A) (A) (A) (A) (A) (A) (A) (A) (A) (A) (A) (A)
                 (A) (A) (A) (A) (A) (A) (A) (A) (A) (A) (A)
       Virtual   (A) (A) (A) (A) (A) (A) (A) (A) (A) (A) (A) (A)
                 (A) (A) (A) (A) (A) (A) (A) (A) (A) (A) (A) (A)
                 (A) (A) (A) (A) (A) (A) (A) (A) (A) (A) (A) (A)
                 (A) (A) (A) (A) (A) (A) (A) (A) (A) (A) (A) (A)
                 (A) (A) (A) (A) (A) (A) (A) (A) (A) (A) (A) (A)
                 (A) (A) (A) (A) (A) (A) (A) (A) (A) (A) (A) (A)
                 (A) (A) (A) (A) (A) (A) (A) (A) (A) (A) (A) (A)
                 (A) (A) (A) (A) (A) (A) (A) (A) (A) (A) (A) (A)
                 (A) (A) (A) (A) (A) (A) (A) (A) (A) (A) (A) (A)
                 (A) (A) (A) (A) (A) (A) (A) (A) (A) (A) (A) (A)
                 (A) (A) (A) (A) (A) (A) (A) (A) (A) (A) (A) (A)
                 (A) (A) (A) (A) (A) (A) (A) (A) (A) (A) (A) (A)
                 (A) (A) (A) (A) (A) (A) (A) (A) (A) (A) (A) (A)
                 (A) (A) (A) (A) (A) (A) (A) (A) (A) (A) (A) (A)
                 (A) (A) (A) (A) (A) (A) (A) (A) (A) (A) (A) (A)
                 (A)
 The electronic state is 1-A.
 Alpha  occ. eigenvalues --  -19.66312 -19.63010 -19.61334 -14.72579 -10.68153
 Alpha  occ. eigenvalues --  -10.63054 -10.57262 -10.54692 -10.54091  -1.23488
 Alpha  occ. eigenvalues --   -1.18446  -1.14595  -1.00236  -0.88988  -0.81217
 Alpha  occ. eigenvalues --   -0.73536  -0.69971  -0.64361  -0.60314  -0.57755
 Alpha  occ. eigenvalues --   -0.56671  -0.56001  -0.53720  -0.52517  -0.51225
 Alpha  occ. eigenvalues --   -0.48967  -0.47437  -0.45924  -0.43355  -0.42054
 Alpha  occ. eigenvalues --   -0.40745  -0.39705  -0.36286  -0.34120  -0.31599
 Alpha virt. eigenvalues --    0.01348   0.04968   0.07850   0.10353   0.11345
 Alpha virt. eigenvalues --    0.12610   0.14039   0.15581   0.17127   0.18292
 Alpha virt. eigenvalues --    0.19664   0.22775   0.25753   0.26881   0.29009
 Alpha virt. eigenvalues --    0.30107   0.32281   0.33243   0.37207   0.38505
 Alpha virt. eigenvalues --    0.38899   0.40279   0.44340   0.45289   0.46387
 Alpha virt. eigenvalues --    0.48233   0.48795   0.50666   0.52073   0.56474
 Alpha virt. eigenvalues --    0.59405   0.60235   0.62047   0.62300   0.63044
 Alpha virt. eigenvalues --    0.63652   0.64760   0.65396   0.66312   0.66661
 Alpha virt. eigenvalues --    0.67739   0.69526   0.71808   0.72622   0.75319
 Alpha virt. eigenvalues --    0.79400   0.79707   0.82844   0.85077   0.87696
 Alpha virt. eigenvalues --    0.88933   0.90705   0.92130   0.93760   0.95761
 Alpha virt. eigenvalues --    0.98647   0.99535   1.03086   1.06041   1.09467
 Alpha virt. eigenvalues --    1.12336   1.14649   1.17480   1.22771   1.27358
 Alpha virt. eigenvalues --    1.29094   1.31292   1.35004   1.42126   1.43548
 Alpha virt. eigenvalues --    1.45229   1.47472   1.50875   1.51830   1.52945
 Alpha virt. eigenvalues --    1.53884   1.55443   1.57145   1.59973   1.61773
 Alpha virt. eigenvalues --    1.62392   1.63995   1.66872   1.69604   1.70656
 Alpha virt. eigenvalues --    1.72285   1.74513   1.76258   1.78171   1.80308
 Alpha virt. eigenvalues --    1.81621   1.82583   1.85662   1.87014   1.90863
 Alpha virt. eigenvalues --    1.94701   1.96757   1.98282   2.02411   2.03824
 Alpha virt. eigenvalues --    2.08218   2.10885   2.13523   2.15145   2.17160
 Alpha virt. eigenvalues --    2.24652   2.27252   2.31627   2.35845   2.36979
 Alpha virt. eigenvalues --    2.43736   2.47944   2.48527   2.52344   2.53993
 Alpha virt. eigenvalues --    2.56000   2.57575   2.59968   2.60563   2.66198
 Alpha virt. eigenvalues --    2.66339   2.70806   2.71928   2.73048   2.75340
 Alpha virt. eigenvalues --    2.80523   2.83279   2.86023   2.86435   2.89338
 Alpha virt. eigenvalues --    2.94379   2.95362   2.96852   2.97254   3.00246
 Alpha virt. eigenvalues --    3.02330   3.08342   3.09567   3.11725   3.16296
 Alpha virt. eigenvalues --    3.22554   3.25298   3.33386   3.37992   3.38527
 Alpha virt. eigenvalues --    3.39968   3.46757   3.54776   3.56565   3.62836
 Alpha virt. eigenvalues --    3.63431   3.83701   3.86170   3.89283   3.90771
 Alpha virt. eigenvalues --    3.96951   3.98739   4.12015   4.14791   4.24411
 Alpha virt. eigenvalues --    4.37072   4.81024   4.91503   4.92375   5.00265
 Alpha virt. eigenvalues --    5.03647   5.10956   5.14109   5.36778   5.61057
 Alpha virt. eigenvalues --    5.66509   5.86192  23.82122  23.89184  23.90724
 Alpha virt. eigenvalues --   23.95115  23.97268  35.67018  49.96405  50.04950
 Alpha virt. eigenvalues --   50.10406
          Condensed to atoms (all electrons):
               1          2          3          4          5          6
     1  N    6.635970   0.378386   0.276348  -0.029063  -0.082182  -0.002329
     2  H    0.378386   0.456407  -0.060812   0.008021  -0.000503   0.004698
     3  C    0.276348  -0.060812   5.541130   0.396311   0.226830  -0.042049
     4  H   -0.029063   0.008021   0.396311   0.480172  -0.039694   0.006485
     5  C   -0.082182  -0.000503   0.226830  -0.039694   5.272317   0.412203
     6  H   -0.002329   0.004698  -0.042049   0.006485   0.412203   0.504924
     7  H    0.006227   0.000338  -0.042764  -0.001726   0.395559  -0.021270
     8  C    0.002201  -0.001336  -0.058018  -0.005309   0.244275  -0.048890
     9  H   -0.000496  -0.000019  -0.004025   0.002712  -0.040307   0.007179
    10  H    0.012525   0.002171  -0.009785   0.000372  -0.031978  -0.002464
    11  C    0.000443   0.000043   0.003230  -0.000064  -0.054789   0.000184
    12  O   -0.000003  -0.000037  -0.000191  -0.000003   0.000533   0.003128
    13  O   -0.000003   0.000001  -0.000214  -0.000004   0.006314  -0.000230
    14  C   -0.052100  -0.004271   0.257129  -0.026985  -0.060549  -0.003274
    15  O    0.002259   0.000405  -0.119672   0.001016   0.021012   0.002812
    16  H    0.381485  -0.035489  -0.038097  -0.012092  -0.000335  -0.000764
    17  H    0.020171  -0.000395  -0.117813  -0.000593   0.014335   0.000005
    18  H    0.000003  -0.000000   0.000160  -0.000012  -0.000008  -0.000090
               7          8          9         10         11         12
     1  N    0.006227   0.002201  -0.000496   0.012525   0.000443  -0.000003
     2  H    0.000338  -0.001336  -0.000019   0.002171   0.000043  -0.000037
     3  C   -0.042764  -0.058018  -0.004025  -0.009785   0.003230  -0.000191
     4  H   -0.001726  -0.005309   0.002712   0.000372  -0.000064  -0.000003
     5  C    0.395559   0.244275  -0.040307  -0.031978  -0.054789   0.000533
     6  H   -0.021270  -0.048890   0.007179  -0.002464   0.000184   0.003128
     7  H    0.512392  -0.038903  -0.004073   0.007467  -0.001552  -0.000206
     8  C   -0.038903   5.443716   0.386580   0.368120   0.296263  -0.105544
     9  H   -0.004073   0.386580   0.481687  -0.014555  -0.027154   0.002453
    10  H    0.007467   0.368120  -0.014555   0.497647  -0.026268   0.011139
    11  C   -0.001552   0.296263  -0.027154  -0.026268   4.390757   0.667236
    12  O   -0.000206  -0.105544   0.002453   0.011139   0.667236   7.954604
    13  O    0.005402  -0.109198   0.001701   0.005609   0.338351  -0.085023
    14  C   -0.003584   0.008113   0.000116   0.000106  -0.000174   0.000001
    15  O    0.012648   0.000319  -0.000009  -0.000044   0.000000  -0.000000
    16  H   -0.000604   0.003508  -0.000166   0.000236   0.000086  -0.000070
    17  H    0.000857  -0.000400  -0.000027  -0.000149   0.000002  -0.000000
    18  H    0.001493  -0.001683   0.000728  -0.000113  -0.027918   0.003551
              13         14         15         16         17         18
     1  N   -0.000003  -0.052100   0.002259   0.381485   0.020171   0.000003
     2  H    0.000001  -0.004271   0.000405  -0.035489  -0.000395  -0.000000
     3  C   -0.000214   0.257129  -0.119672  -0.038097  -0.117813   0.000160
     4  H   -0.000004  -0.026985   0.001016  -0.012092  -0.000593  -0.000012
     5  C    0.006314  -0.060549   0.021012  -0.000335   0.014335  -0.000008
     6  H   -0.000230  -0.003274   0.002812  -0.000764   0.000005  -0.000090
     7  H    0.005402  -0.003584   0.012648  -0.000604   0.000857   0.001493
     8  C   -0.109198   0.008113   0.000319   0.003508  -0.000400  -0.001683
     9  H    0.001701   0.000116  -0.000009  -0.000166  -0.000027   0.000728
    10  H    0.005609   0.000106  -0.000044   0.000236  -0.000149  -0.000113
    11  C    0.338351  -0.000174   0.000000   0.000086   0.000002  -0.027918
    12  O   -0.085023   0.000001  -0.000000  -0.000070  -0.000000   0.003551
    13  O    7.908405   0.000003  -0.000000  -0.000011   0.000000   0.322150
    14  C    0.000003   4.593608   0.590161   0.005008   0.423314  -0.000025
    15  O   -0.000000   0.590161   7.931748  -0.000230  -0.041158  -0.000059
    16  H   -0.000011   0.005008  -0.000230   0.438067  -0.000703   0.000014
    17  H    0.000000   0.423314  -0.041158  -0.000703   0.561726  -0.000005
    18  H    0.322150  -0.000025  -0.000059   0.000014  -0.000005   0.359649
 Mulliken charges:
               1
     1  N   -0.549843
     2  H    0.252393
     3  C   -0.207697
     4  H    0.220458
     5  C   -0.283034
     6  H    0.179743
     7  H    0.172300
     8  C   -0.383814
     9  H    0.207678
    10  H    0.179966
    11  C    0.441324
    12  O   -0.451571
    13  O   -0.393251
    14  C    0.273403
    15  O   -0.401208
    16  H    0.260156
    17  H    0.140834
    18  H    0.342164
 Sum of Mulliken charges =  -0.00000
 Mulliken charges with hydrogens summed into heavy atoms:
               1
     1  N   -0.037294
     3  C    0.012761
     5  C    0.069008
     8  C    0.003830
    11  C    0.441324
    12  O   -0.451571
    13  O   -0.051087
    14  C    0.414237
    15  O   -0.401208
 Electronic spatial extent (au):  <R**2>=           1644.5134
 Charge=             -0.0000 electrons
 Dipole moment (field-independent basis, Debye):
    X=              2.6714    Y=              2.1323    Z=              5.0417  Tot=              6.0911
 Quadrupole moment (field-independent basis, Debye-Ang):
   XX=            -79.0033   YY=            -57.0249   ZZ=            -49.5604
   XY=              5.8010   XZ=             -6.8855   YZ=             -3.4929
 Traceless Quadrupole moment (field-independent basis, Debye-Ang):
   XX=            -17.1404   YY=              4.8380   ZZ=             12.3024
   XY=              5.8010   XZ=             -6.8855   YZ=             -3.4929
 Octapole moment (field-independent basis, Debye-Ang**2):
  XXX=             50.4450  YYY=              9.1252  ZZZ=              7.1222  XYY=            -21.8612
  XXY=              3.2732  XXZ=             29.4247  XZZ=              1.6780  YZZ=             -2.6682
  YYZ=              7.5275  XYZ=             -8.3336
 Hexadecapole moment (field-independent basis, Debye-Ang**3):
 XXXX=          -1750.1853 YYYY=           -367.5323 ZZZZ=           -125.6767 XXXY=              9.0475
 XXXZ=            -47.6887 YYYX=             17.4915 YYYZ=            -15.8936 ZZZX=            -18.6896
 ZZZY=             -8.6468 XXYY=           -396.6701 XXZZ=           -281.5506 YYZZ=            -76.0258
 XXYZ=            -12.1497 YYXZ=             -4.7663 ZZXY=             17.5784
 N-N= 4.478533241749D+02 E-N=-2.011088206958D+03  KE= 4.748132785654D+02
 1\1\NSC-N171\FOpt\RM062X\6-311G(d,p)\C5H9N1O3\X_GABOA\03-Apr-2023\0\\#
 M062X/6-311G** scrf=smd opt\\glh\\0,1\N,14.5272571475,26.0882589789,9.
 1963298686\H,15.4765297081,26.4140352339,9.0283347268\C,14.3856880694,
 25.7823269146,10.6179885243\H,13.4474967395,25.2230422704,10.737852643
 \C,15.5228464535,24.987898849,11.2535992578\H,16.4524100052,25.5595075
 476,11.1600896427\H,15.3187636117,24.8629099434,12.3201796174\C,15.690
 8157193,23.6166128355,10.5883954214\H,14.763617525,23.0436307145,10.68
 39674233\H,15.9369772708,23.7250170622,9.5328166529\C,16.8112141544,22
 .852657775,11.2365572169\O,17.9030055883,22.6877608549,10.7486382034\O
 ,16.5680824013,22.3568471861,12.4640744862\C,14.1400983631,27.07908425
 06,11.3525867245\O,14.5923577452,27.3450452623,12.4408035959\H,14.4242
 915087,25.2331700062,8.6595690839\H,13.4911411082,27.7936921569,10.816
 4918951\H,15.6555368807,22.531142158,12.7328750157\\Version=ES64L-G09R
 evE.01\State=1-A\HF=-476.3358292\RMSD=9.404e-09\RMSF=8.759e-06\Dipole=
 -2.2518843,-0.2556411,-0.7788051\Quadrupole=-1.7501528,-2.8563153,4.60
 64681,11.9536387,-1.0306162,-4.5689354\PG=C01 [X(C5H9N1O3)]\\@


 EVERYTHING'S GOT A MORAL, IF ONLY YOU CAN FIND IT.

                                    -- LEWIS CARROL, ALICE IN WONDERLAND
 Job cpu time:       0 days  1 hours 27 minutes  8.7 seconds.
 File lengths (MBytes):  RWF=     90 Int=      0 D2E=      0 Chk=     12 Scr=      1
 Normal termination of Gaussian 09 at Mon Apr  3 11:25:13 2023.
