 Entering Gaussian System, Link 0=/software/sse/easybuild/prefix/software/Gaussian/09.E.01-avx-nsc1-bdist/g09/g09.orig
 Input=glh_esp.wrap
 Output=glh_esp.log
 Initial command:
 /software/sse/easybuild/prefix/software/Gaussian/09.E.01-avx-nsc1-bdist/g09/l1.exe "/scratch/local/Gau-53398.inp" -scrdir="/scratch/local/"
 Entering Link 1 = /software/sse/easybuild/prefix/software/Gaussian/09.E.01-avx-nsc1-bdist/g09/l1.exe PID=     53399.
  
 Copyright (c) 1988,1990,1992,1993,1995,1998,2003,2009,2015,
            Gaussian, Inc.  All Rights Reserved.
  
 This is part of the Gaussian(R) 09 program.  It is based on
 the Gaussian(R) 03 system (copyright 2003, Gaussian, Inc.),
 the Gaussian(R) 98 system (copyright 1998, Gaussian, Inc.),
 the Gaussian(R) 94 system (copyright 1995, Gaussian, Inc.),
 the Gaussian 92(TM) system (copyright 1992, Gaussian, Inc.),
 the Gaussian 90(TM) system (copyright 1990, Gaussian, Inc.),
 the Gaussian 88(TM) system (copyright 1988, Gaussian, Inc.),
 the Gaussian 86(TM) system (copyright 1986, Carnegie Mellon
 University), and the Gaussian 82(TM) system (copyright 1983,
 Carnegie Mellon University). Gaussian is a federally registered
 trademark of Gaussian, Inc.
  
 This software contains proprietary and confidential information,
 including trade secrets, belonging to Gaussian, Inc.
  
 This software is provided under written license and may be
 used, copied, transmitted, or stored only in accord with that
 written license.
  
 The following legend is applicable only to US Government
 contracts under FAR:
  
                    RESTRICTED RIGHTS LEGEND
  
 Use, reproduction and disclosure by the US Government is
 subject to restrictions as set forth in subparagraphs (a)
 and (c) of the Commercial Computer Software - Restricted
 Rights clause in FAR 52.227-19.
  
 Gaussian, Inc.
 340 Quinnipiac St., Bldg. 40, Wallingford CT 06492
  
  
 ---------------------------------------------------------------
 Warning -- This program may not be used in any manner that
 competes with the business of Gaussian, Inc. or will provide
 assistance to any competitor of Gaussian, Inc.  The licensee
 of this program is prohibited from giving any competitor of
 Gaussian, Inc. access to this program.  By using this program,
 the user acknowledges that Gaussian, Inc. is engaged in the
 business of creating and licensing software in the field of
 computational chemistry and represents and warrants to the
 licensee that it is not a competitor of Gaussian, Inc. and that
 it will not use this program in any manner prohibited above.
 ---------------------------------------------------------------
  

 Cite this work as:
 Gaussian 09, Revision E.01,
 M. J. Frisch, G. W. Trucks, H. B. Schlegel, G. E. Scuseria, 
 M. A. Robb, J. R. Cheeseman, G. Scalmani, V. Barone, B. Mennucci, 
 G. A. Petersson, H. Nakatsuji, M. Caricato, X. Li, H. P. Hratchian, 
 A. F. Izmaylov, J. Bloino, G. Zheng, J. L. Sonnenberg, M. Hada, 
 M. Ehara, K. Toyota, R. Fukuda, J. Hasegawa, M. Ishida, T. Nakajima, 
 Y. Honda, O. Kitao, H. Nakai, T. Vreven, J. A. Montgomery, Jr., 
 J. E. Peralta, F. Ogliaro, M. Bearpark, J. J. Heyd, E. Brothers, 
 K. N. Kudin, V. N. Staroverov, T. Keith, R. Kobayashi, J. Normand, 
 K. Raghavachari, A. Rendell, J. C. Burant, S. S. Iyengar, J. Tomasi, 
 M. Cossi, N. Rega, J. M. Millam, M. Klene, J. E. Knox, J. B. Cross, 
 V. Bakken, C. Adamo, J. Jaramillo, R. Gomperts, R. E. Stratmann, 
 O. Yazyev, A. J. Austin, R. Cammi, C. Pomelli, J. W. Ochterski, 
 R. L. Martin, K. Morokuma, V. G. Zakrzewski, G. A. Voth, 
 P. Salvador, J. J. Dannenberg, S. Dapprich, A. D. Daniels, 
 O. Farkas, J. B. Foresman, J. V. Ortiz, J. Cioslowski, 
 and D. J. Fox, Gaussian, Inc., Wallingford CT, 2013.
 
 ******************************************
 Gaussian 09:  ES64L-G09RevE.01 30-Nov-2015
                 3-Apr-2023 
 ******************************************
 %nproc=8
 Will use up to    8 processors via shared memory.
 %chk=glh_esp
 ----------------------------------------------------------------------
 #HF/6-31G* scrf=smd SCF=tight Test Pop=MK iop(6/33=2) iop(6/42=6) # io
 p(6/50=1)
 ----------------------------------------------------------------------
 1/38=1/1;
 2/12=2,17=6,18=5,40=1/2;
 3/5=1,6=6,7=1,11=9,16=1,25=1,30=1,70=32201,72=1/1,2,3;
 4//1;
 5/5=2,32=2,38=5/2;
 6/7=2,8=2,9=2,10=2,15=8,20=1,28=1,33=2,42=6,50=1/1,2;
 99/5=1,9=1/99;
 ------------
 RESP charges
 ------------
 Symbolic Z-matrix:
 Charge =  0 Multiplicity = 1
 N                     1.82524   1.75177   0.01869 
 H                     1.60426   1.86928  -0.96763 
 C                     1.53284   0.37175   0.39923 
 H                     1.55524   0.32596   1.49685 
 C                     0.20644  -0.19781  -0.09525 
 H                     0.19697  -0.17936  -1.1903 
 H                     0.12738  -1.24226   0.2174 
 C                    -0.98498   0.60209   0.44495 
 H                    -0.97809   0.58169   1.53887 
 H                    -0.94325   1.6366    0.10634 
 C                    -2.27776   0.01719  -0.05069 
 O                    -2.96277   0.50099  -0.91899 
 O                    -2.66036  -1.14848   0.503 
 C                     2.6977   -0.48819  -0.03103 
 O                     2.59448  -1.60549  -0.47879 
 H                     1.20299   2.37536   0.5225 
 H                     3.68791  -0.01763   0.10042 
 H                    -2.0463   -1.41834   1.19975 
 
                          Input orientation:                          
 ---------------------------------------------------------------------
 Center     Atomic      Atomic             Coordinates (Angstroms)
 Number     Number       Type             X           Y           Z
 ---------------------------------------------------------------------
      1          7           0        1.825236    1.751765    0.018690
      2          1           0        1.604259    1.869275   -0.967632
      3          6           0        1.532838    0.371749    0.399227
      4          1           0        1.555235    0.325959    1.496848
      5          6           0        0.206438   -0.197814   -0.095248
      6          1           0        0.196969   -0.179358   -1.190300
      7          1           0        0.127377   -1.242261    0.217395
      8          6           0       -0.984979    0.602093    0.444947
      9          1           0       -0.978092    0.581687    1.538873
     10          1           0       -0.943247    1.636595    0.106336
     11          6           0       -2.277757    0.017193   -0.050686
     12          8           0       -2.962773    0.500988   -0.918994
     13          8           0       -2.660362   -1.148478    0.502995
     14          6           0        2.697703   -0.488191   -0.031031
     15          8           0        2.594483   -1.605487   -0.478786
     16          1           0        1.202990    2.375364    0.522500
     17          1           0        3.687905   -0.017628    0.100424
     18          1           0       -2.046295   -1.418344    1.199749
 ---------------------------------------------------------------------
                    Distance matrix (angstroms):
                    1          2          3          4          5
     1  N    0.000000
     2  H    1.017581   0.000000
     3  C    1.461078   2.028790   0.000000
     4  H    2.071418   2.908245   1.098804   0.000000
     5  C    2.536601   2.643447   1.525859   2.151363   0.000000
     6  H    2.800383   2.495384   2.148223   3.053031   1.095248
     7  H    3.447666   3.642407   2.147885   2.476912   1.093099
     8  C    3.066064   3.210184   2.528745   2.763229   1.533342
     9  H    3.396864   3.822170   2.765436   2.546548   2.163581
    10  H    2.772263   2.774407   2.795821   3.145426   2.174274
    11  C    4.455121   4.397846   3.853410   4.145121   2.493880
    12  O    5.036737   4.767846   4.686676   5.126336   3.348250
    13  O    5.363446   5.427391   4.461478   4.575256   3.078993
    14  C    2.404386   2.762334   1.510473   2.074244   2.508953
    15  O    3.479995   3.646023   2.409867   2.951889   2.798465
    16  H    1.014835   1.624080   2.034323   2.296408   2.827715
    17  H    2.570402   3.007113   2.210251   2.572223   3.491614
    18  H    5.141327   5.369592   4.081110   4.012715   2.870804
                    6          7          8          9         10
     6  H    0.000000
     7  H    1.765279   0.000000
     8  C    2.163724   2.165816   0.000000
     9  H    3.067302   2.509014   1.094138   0.000000
    10  H    2.505802   3.073497   1.089309   1.779384   0.000000
    11  C    2.731597   2.728142   1.503009   2.129432   2.104290
    12  O    3.243524   3.725496   2.404626   3.160155   2.533652
    13  O    3.459882   2.803899   2.423794   2.626128   3.295824
    14  C    2.773617   2.690151   3.870067   4.137718   4.217831
    15  O    2.878918   2.589056   4.305722   4.649513   4.834149
    16  H    3.236104   3.786455   2.817395   3.001235   2.307662
    17  H    3.725421   3.767064   4.726372   4.919333   4.917729
    18  H    3.504234   2.391835   2.403806   2.292638   3.427086
                   11         12         13         14         15
    11  C    0.000000
    12  O    1.207172   0.000000
    13  O    1.346008   2.198691   0.000000
    14  C    5.001100   5.814460   5.424945   0.000000
    15  O    5.153162   5.959372   5.365272   1.208093   0.000000
    16  H    4.243243   4.790070   5.229085   3.277272   4.334282
    17  H    5.967677   6.748310   6.460757   1.104178   2.013045
    18  H    1.917793   3.002139   0.967146   4.988539   4.938555
                   16         17         18
    16  H    0.000000
    17  H    3.475538   0.000000
    18  H    5.040708   6.004296   0.000000
 Stoichiometry    C5H9NO3
 Framework group  C1[X(C5H9NO3)]
 Deg. of freedom    48
 Full point group                 C1      NOp   1
 Largest Abelian subgroup         C1      NOp   1
 Largest concise Abelian subgroup C1      NOp   1
                         Standard orientation:                         
 ---------------------------------------------------------------------
 Center     Atomic      Atomic             Coordinates (Angstroms)
 Number     Number       Type             X           Y           Z
 ---------------------------------------------------------------------
      1          7           0        1.825236    1.751765    0.018690
      2          1           0        1.604259    1.869275   -0.967632
      3          6           0        1.532838    0.371749    0.399227
      4          1           0        1.555235    0.325959    1.496848
      5          6           0        0.206438   -0.197814   -0.095248
      6          1           0        0.196969   -0.179358   -1.190300
      7          1           0        0.127377   -1.242261    0.217395
      8          6           0       -0.984979    0.602093    0.444947
      9          1           0       -0.978092    0.581687    1.538873
     10          1           0       -0.943247    1.636595    0.106336
     11          6           0       -2.277757    0.017193   -0.050686
     12          8           0       -2.962773    0.500988   -0.918994
     13          8           0       -2.660362   -1.148478    0.502995
     14          6           0        2.697703   -0.488191   -0.031031
     15          8           0        2.594483   -1.605487   -0.478786
     16          1           0        1.202990    2.375364    0.522500
     17          1           0        3.687905   -0.017628    0.100424
     18          1           0       -2.046295   -1.418344    1.199749
 ---------------------------------------------------------------------
 Rotational constants (GHZ):      2.9937774      0.7674047      0.6662201
 Standard basis: 6-31G(d) (6D, 7F)
 There are   153 symmetry adapted cartesian basis functions of A   symmetry.
 There are   153 symmetry adapted basis functions of A   symmetry.
   153 basis functions,   288 primitive gaussians,   153 cartesian basis functions
    35 alpha electrons       35 beta electrons
       nuclear repulsion energy       447.8455379110 Hartrees.
 NAtoms=   18 NActive=   18 NUniq=   18 SFac= 1.00D+00 NAtFMM=   60 NAOKFM=F Big=F
 Integral buffers will be    131072 words long.
 Raffenetti 1 integral format.
 Two-electron integral symmetry is turned on.
 ------------------------------------------------------------------------------
 Polarizable Continuum Model (PCM)
 =================================
 Model                : PCM (using non-symmetric T matrix).
 Atomic radii         : SMD-Coulomb.
 Polarization charges : Total charges.
 Charge compensation  : None.
 Solution method      : On-the-fly selection.
 Cavity type          : VdW (van der Waals Surface) (Alpha=1.000).
 Cavity algorithm     : GePol (No added spheres)
                        Default sphere list used, NSphG=   18.
                        Lebedev-Laikov grids with approx.  5.0 points / Ang**2.
                        Smoothing algorithm: York/Karplus (Gamma=1.0000).
                        Polarization charges: spherical gaussians, with
                                              point-specific exponents (IZeta= 3).
                        Self-potential: point-specific (ISelfS= 7).
                        Self-field    : sphere-specific E.n sum rule (ISelfD= 2).
 Solvent              : Water, Eps=  78.355300 Eps(inf)=   1.777849
 ------------------------------------------------------------------------------
 Spheres list:
 ISph  on   Nord     Re0    Alpha      Xe            Ye            Ze
    1   N      1    1.8900  1.000      1.825236      1.751765      0.018690
    2   H      2    1.2000  1.000      1.604259      1.869275     -0.967632
    3   C      3    1.8500  1.000      1.532838      0.371749      0.399227
    4   H      4    1.2000  1.000      1.555235      0.325959      1.496848
    5   C      5    1.8500  1.000      0.206438     -0.197814     -0.095248
    6   H      6    1.2000  1.000      0.196969     -0.179358     -1.190300
    7   H      7    1.2000  1.000      0.127377     -1.242261      0.217395
    8   C      8    1.8500  1.000     -0.984979      0.602093      0.444947
    9   H      9    1.2000  1.000     -0.978092      0.581687      1.538873
   10   H     10    1.2000  1.000     -0.943247      1.636595      0.106336
   11   C     11    1.8500  1.000     -2.277757      0.017193     -0.050686
   12   O     12    1.5200  1.000     -2.962773      0.500988     -0.918994
   13   O     13    1.5200  1.000     -2.660362     -1.148478      0.502995
   14   C     14    1.8500  1.000      2.697703     -0.488191     -0.031031
   15   O     15    1.5200  1.000      2.594483     -1.605487     -0.478786
   16   H     16    1.2000  1.000      1.202990      2.375364      0.522500
   17   H     17    1.2000  1.000      3.687905     -0.017628      0.100424
   18   H     18    1.2000  1.000     -2.046295     -1.418344      1.199749
 ------------------------------------------------------------------------------
 ------------------------------------------------------------------------------
 Atomic radii for non-electrostatic terms: SMD-CDS.
 ------------------------------------------------------------------------------
 Nuclear repulsion after PCM non-electrostatic terms =      447.8533427076 Hartrees.
 One-electron integrals computed using PRISM.
 NBasis=   153 RedAO= T EigKep=  2.33D-03  NBF=   153
 NBsUse=   153 1.00D-06 EigRej= -1.00D+00 NBFU=   153
 ExpMin= 1.61D-01 ExpMax= 5.48D+03 ExpMxC= 8.25D+02 IAcc=1 IRadAn=         1 AccDes= 0.00D+00
 Harris functional with IExCor=  205 and IRadAn=       1 diagonalized for initial guess.
 HarFok:  IExCor=  205 AccDes= 0.00D+00 IRadAn=         1 IDoV= 1 UseB2=F ITyADJ=14
 ICtDFT=  3500011 ScaDFX=  1.000000  1.000000  1.000000  1.000000
 FoFCou: FMM=F IPFlag=           0 FMFlag=      100000 FMFlg1=           0
         NFxFlg=           0 DoJE=T BraDBF=F KetDBF=T FulRan=T
         wScrn=  0.000000 ICntrl=     500 IOpCl=  0 I1Cent=   200000004 NGrid=           0
         NMat0=    1 NMatS0=      1 NMatT0=    0 NMatD0=    1 NMtDS0=    0 NMtDT0=    0
 Petite list used in FoFCou.
 Keep R1 ints in memory in canonical form, NReq=74488702.
 Requested convergence on RMS density matrix=1.00D-08 within 128 cycles.
 Requested convergence on MAX density matrix=1.00D-06.
 Requested convergence on             energy=1.00D-06.
 No special actions if energy rises.
 Inv3:  Mode=1 IEnd=     5306700.
 Iteration    1 A*A^-1 deviation from unit magnitude is 3.11D-15 for   1304.
 Iteration    1 A*A^-1 deviation from orthogonality  is 4.35D-15 for   1009    859.
 Iteration    1 A^-1*A deviation from unit magnitude is 3.55D-15 for   1304.
 Iteration    1 A^-1*A deviation from orthogonality  is 1.40D-11 for   1143   1074.
 Error on total polarization charges =  0.03103
 SCF Done:  E(RHF) =  -473.645238598     A.U. after   15 cycles
            NFock= 15  Conv=0.67D-08     -V/T= 2.0024
 SMD-CDS (non-electrostatic) energy       (kcal/mol) =       4.90
 (included in total energy above)

 **********************************************************************

            Population analysis using the SCF density.

 **********************************************************************

 Orbital symmetries:
 BldTbl:  Degeneracy threshold= 1.00D-02
       Occupied  (A) (A) (A) (A) (A) (A) (A) (A) (A) (A) (A) (A)
                 (A) (A) (A) (A) (A) (A) (A) (A) (A) (A) (A) (A)
                 (A) (A) (A) (A) (A) (A) (A) (A) (A) (A) (A)
       Virtual   (A) (A) (A) (A) (A) (A) (A) (A) (A) (A) (A) (A)
                 (A) (A) (A) (A) (A) (A) (A) (A) (A) (A) (A) (A)
                 (A) (A) (A) (A) (A) (A) (A) (A) (A) (A) (A) (A)
                 (A) (A) (A) (A) (A) (A) (A) (A) (A) (A) (A) (A)
                 (A) (A) (A) (A) (A) (A) (A) (A) (A) (A) (A) (A)
                 (A) (A) (A) (A) (A) (A) (A) (A) (A) (A) (A) (A)
                 (A) (A) (A) (A) (A) (A) (A) (A) (A) (A) (A) (A)
                 (A) (A) (A) (A) (A) (A) (A) (A) (A) (A) (A) (A)
                 (A) (A) (A) (A) (A) (A) (A) (A) (A) (A) (A) (A)
                 (A) (A) (A) (A) (A) (A) (A) (A) (A) (A)
 The electronic state is 1-A.
 Alpha  occ. eigenvalues --  -20.61533 -20.57358 -20.55945 -15.54900 -11.39439
 Alpha  occ. eigenvalues --  -11.33571 -11.26378 -11.23779 -11.23054  -1.46377
 Alpha  occ. eigenvalues --   -1.40447  -1.36564  -1.19555  -1.06637  -0.97312
 Alpha  occ. eigenvalues --   -0.88004  -0.82464  -0.76829  -0.71889  -0.68466
 Alpha  occ. eigenvalues --   -0.67825  -0.66901  -0.63581  -0.62674  -0.61132
 Alpha  occ. eigenvalues --   -0.57855  -0.57186  -0.54591  -0.51548  -0.50682
 Alpha  occ. eigenvalues --   -0.48976  -0.48098  -0.45506  -0.42883  -0.39811
 Alpha virt. eigenvalues --    0.14584   0.18239   0.22612   0.25795   0.27764
 Alpha virt. eigenvalues --    0.29391   0.30170   0.31712   0.33008   0.34216
 Alpha virt. eigenvalues --    0.37039   0.39605   0.41754   0.43030   0.46133
 Alpha virt. eigenvalues --    0.48617   0.51631   0.52692   0.58855   0.72177
 Alpha virt. eigenvalues --    0.75467   0.76844   0.77851   0.79255   0.81815
 Alpha virt. eigenvalues --    0.84350   0.88367   0.90370   0.92339   0.93689
 Alpha virt. eigenvalues --    0.95095   0.96218   0.98132   1.00883   1.03326
 Alpha virt. eigenvalues --    1.05351   1.07755   1.10293   1.11172   1.12512
 Alpha virt. eigenvalues --    1.13365   1.14446   1.17079   1.19863   1.20491
 Alpha virt. eigenvalues --    1.21819   1.23229   1.24186   1.27095   1.28070
 Alpha virt. eigenvalues --    1.30182   1.32126   1.34090   1.38210   1.39072
 Alpha virt. eigenvalues --    1.40233   1.43857   1.51925   1.61550   1.64046
 Alpha virt. eigenvalues --    1.66933   1.68981   1.72716   1.75082   1.81697
 Alpha virt. eigenvalues --    1.84123   1.89577   1.92582   1.96145   2.01362
 Alpha virt. eigenvalues --    2.02255   2.02904   2.07192   2.08709   2.09608
 Alpha virt. eigenvalues --    2.10893   2.14494   2.16537   2.20176   2.26587
 Alpha virt. eigenvalues --    2.27523   2.28126   2.31816   2.37042   2.37896
 Alpha virt. eigenvalues --    2.41556   2.43219   2.47416   2.50328   2.55479
 Alpha virt. eigenvalues --    2.66804   2.71091   2.73070   2.74208   2.79697
 Alpha virt. eigenvalues --    2.81576   2.85531   2.90696   2.96264   2.98554
 Alpha virt. eigenvalues --    2.99272   3.02125   3.08881   3.16578   3.18298
 Alpha virt. eigenvalues --    3.28903   3.34013   3.35798   3.43848   4.20921
 Alpha virt. eigenvalues --    4.28591   4.29770   4.48656   4.58221   4.64196
 Alpha virt. eigenvalues --    4.75271   4.90410   5.05383
          Condensed to atoms (all electrons):
               1          2          3          4          5          6
     1  N    7.123909   0.327186   0.259689  -0.036358  -0.069306  -0.000692
     2  H    0.327186   0.355852  -0.037830   0.004325  -0.000386   0.003044
     3  C    0.259689  -0.037830   5.132595   0.398430   0.322475  -0.037418
     4  H   -0.036358   0.004325   0.398430   0.474987  -0.038145   0.003604
     5  C   -0.069306  -0.000386   0.322475  -0.038145   5.196852   0.394998
     6  H   -0.000692   0.003044  -0.037418   0.003604   0.394998   0.499069
     7  H    0.003758   0.000056  -0.034481  -0.000349   0.390063  -0.020590
     8  C   -0.002513  -0.000564  -0.048119  -0.003459   0.290852  -0.041531
     9  H    0.000335   0.000034  -0.003916   0.001813  -0.034806   0.003484
    10  H    0.005132   0.000750  -0.005416   0.000417  -0.027583  -0.000907
    11  C    0.000163  -0.000010   0.003267  -0.000152  -0.038633  -0.002482
    12  O    0.000002  -0.000002  -0.000066  -0.000001  -0.000428   0.001015
    13  O   -0.000002   0.000000  -0.000028   0.000006   0.001543   0.000199
    14  C   -0.056985  -0.003479   0.339279  -0.033999  -0.057231  -0.003480
    15  O    0.001467   0.000150  -0.077380   0.000625   0.007405   0.001492
    16  H    0.333474  -0.023028  -0.032996  -0.005490  -0.001214  -0.000078
    17  H    0.011075   0.000186  -0.085026   0.001081   0.005487  -0.000039
    18  H    0.000001  -0.000000  -0.000065  -0.000002   0.000237  -0.000007
               7          8          9         10         11         12
     1  N    0.003758  -0.002513   0.000335   0.005132   0.000163   0.000002
     2  H    0.000056  -0.000564   0.000034   0.000750  -0.000010  -0.000002
     3  C   -0.034481  -0.048119  -0.003916  -0.005416   0.003267  -0.000066
     4  H   -0.000349  -0.003459   0.001813   0.000417  -0.000152  -0.000001
     5  C    0.390063   0.290852  -0.034806  -0.027583  -0.038633  -0.000428
     6  H   -0.020590  -0.041531   0.003484  -0.000907  -0.002482   0.001015
     7  H    0.491698  -0.039652  -0.001169   0.003243  -0.002843   0.000089
     8  C   -0.039652   5.320567   0.382300   0.379600   0.374336  -0.076471
     9  H   -0.001169   0.382300   0.467075  -0.016667  -0.032527   0.001718
    10  H    0.003243   0.379600  -0.016667   0.463148  -0.035349   0.004396
    11  C   -0.002843   0.374336  -0.032527  -0.035349   4.058288   0.593095
    12  O    0.000089  -0.076471   0.001718   0.004396   0.593095   8.211893
    13  O    0.002642  -0.087295   0.001935   0.003169   0.279709  -0.081322
    14  C   -0.002952   0.004036  -0.000031  -0.000026  -0.000028   0.000000
    15  O    0.004585   0.000347  -0.000002  -0.000005  -0.000003  -0.000000
    16  H   -0.000104   0.000990   0.000066   0.000619   0.000072  -0.000003
    17  H    0.000117  -0.000048  -0.000003  -0.000006   0.000000  -0.000000
    18  H    0.001465   0.000142   0.000294   0.000170  -0.015228   0.002904
              13         14         15         16         17         18
     1  N   -0.000002  -0.056985   0.001467   0.333474   0.011075   0.000001
     2  H    0.000000  -0.003479   0.000150  -0.023028   0.000186  -0.000000
     3  C   -0.000028   0.339279  -0.077380  -0.032996  -0.085026  -0.000065
     4  H    0.000006  -0.033999   0.000625  -0.005490   0.001081  -0.000002
     5  C    0.001543  -0.057231   0.007405  -0.001214   0.005487   0.000237
     6  H    0.000199  -0.003480   0.001492  -0.000078  -0.000039  -0.000007
     7  H    0.002642  -0.002952   0.004585  -0.000104   0.000117   0.001465
     8  C   -0.087295   0.004036   0.000347   0.000990  -0.000048   0.000142
     9  H    0.001935  -0.000031  -0.000002   0.000066  -0.000003   0.000294
    10  H    0.003169  -0.000026  -0.000005   0.000619  -0.000006   0.000170
    11  C    0.279709  -0.000028  -0.000003   0.000072   0.000000  -0.015228
    12  O   -0.081322   0.000000  -0.000000  -0.000003  -0.000000   0.002904
    13  O    8.375030  -0.000001   0.000000  -0.000000  -0.000000   0.252074
    14  C   -0.000001   4.511680   0.521013   0.004153   0.394400   0.000002
    15  O    0.000000   0.521013   8.178592  -0.000064  -0.042115  -0.000004
    16  H   -0.000000   0.004153  -0.000064   0.337246  -0.000374   0.000001
    17  H   -0.000000   0.394400  -0.042115  -0.000374   0.508809  -0.000000
    18  H    0.252074   0.000002  -0.000004   0.000001  -0.000000   0.230081
 Mulliken charges:
               1
     1  N   -0.900335
     2  H    0.373716
     3  C   -0.092993
     4  H    0.232668
     5  C   -0.342181
     6  H    0.200320
     7  H    0.204424
     8  C   -0.453519
     9  H    0.230069
    10  H    0.225315
    11  C    0.818325
    12  O   -0.656820
    13  O   -0.747660
    14  C    0.383650
    15  O   -0.596103
    16  H    0.386731
    17  H    0.206456
    18  H    0.527937
 Sum of Mulliken charges =  -0.00000
 Mulliken charges with hydrogens summed into heavy atoms:
               1
     1  N   -0.139888
     3  C    0.139676
     5  C    0.062564
     8  C    0.001865
    11  C    0.818325
    12  O   -0.656820
    13  O   -0.219723
    14  C    0.590106
    15  O   -0.596103
 DipInt: DoE/N= T F RetVal/Mat= T F Init=T NMatP=  1 IDeriv=0 Min/MaxMlt=  0  4
 Entering OneElI...
 OneElI was handed   134155216 working-precision words.
 Multipole integrals L=0 to 4 MinM= 0 MaxM= 0.
 Requested accuracy = 0.1000D-12
 ShPair: Thresh= 1.00D-13 NBox=     0 BxSize= 0.00D+00 RnKept= 1.28D+01
         NSMCal=                 1485 NSMKep=                1368
 PrsmSu:  NPrtUS=   1 ThrOK=F IAlg=1 NPAlg=1 LenDen=           0.
 Prism:   IPart=     0 DynPar=F LinDyn=F Incr=          13.
 PRISM was handed   134029839 working-precision words and  1368 shell-pairs
 IPart=  0 NShTot=        1368 NBatch=          45 AvBLen=        30.4
 PrSmSu:  NxtVal=             14.
 Electronic moments (au):
        -70.00000000          1.16460103          0.97359875          2.13422020
      -1220.89571845       -311.64952718       -113.86660628          4.77217873
         -5.35843114         -2.70046665        514.02416871        -80.05215461
          3.06853137       -489.56856022        565.85557774        358.63384485
        138.15091776        -12.66558564         21.67017560       -293.37423595
     -32655.49337117      -3431.22769261       -616.53693266       1474.78886216
       -785.22249821       -424.46452466       -144.32380243       -179.34364325
          9.95693535      -5486.43588717      -2101.63132121       -434.97560859
        303.29671986        517.60755010        102.29246809
 Electronic spatial extent (au):  <R**2>=           1646.4119
 DipInt: DoE/N= F T RetVal/Mat= T F Init=T NMatP=  1 IDeriv=0 Min/MaxMlt=  0  4
 Nuclear    moments (au):
         70.00000000         -0.00000000          0.00000000         -0.00000000
       1161.00146999        268.46981271         77.06149733          0.00000000
         -0.00000763          0.00006171       -432.78423995         94.85845009
          7.57701915        455.55117197       -558.04573909       -312.73099907
       -134.88109709          9.09805345        -10.35677743        279.62489404
      27981.46810809       2455.10333409        289.32564197      -1437.39109460
        651.82979188        475.15394597        101.20724354        127.29674394
        -34.53804858       4409.00423552       1354.68827474        236.71333627
       -336.72240032       -528.17068528        -53.14050023
 Total      moments (au):
         -0.00000000          1.16460103          0.97359875          2.13422020
        -59.89424846        -43.17971447        -36.80510896          4.77217873
         -5.35843877         -2.70040495         81.23992876         14.80629548
         10.64555051        -34.01738825          7.80983865         45.90284578
          3.26982068         -3.56753219         11.31339817        -13.74934191
      -4674.02526308       -976.12435852       -327.21129069         37.39776756
       -133.39270633         50.68942131        -43.11655889        -52.04689931
        -24.58111323      -1077.43165165       -746.94304648       -198.26227232
        -33.42568046        -10.56313518         49.15196785
 Traceless Quadrup. (au):
        -13.26789116          3.44664282          9.82124834          4.77217873
         -5.35843877         -2.70040495
 Charge=             -0.0000 electrons
 Dipole moment (field-independent basis, Debye):
    X=              2.9601    Y=              2.4746    Z=              5.4246  Tot=              6.6568
 Quadrupole moment (field-independent basis, Debye-Ang):
   XX=            -80.5598   YY=            -58.0782   ZZ=            -49.5041
   XY=              6.4187   XZ=             -7.2073   YZ=             -3.6321
 Traceless Quadrupole moment (field-independent basis, Debye-Ang):
   XX=            -17.8458   YY=              4.6359   ZZ=             13.2099
   XY=              6.4187   XZ=             -7.2073   YZ=             -3.6321
 Octapole moment (field-independent basis, Debye-Ang**2):
  XXX=             57.8234  YYY=             10.5386  ZZZ=              7.5771  XYY=            -24.2123
  XXY=              5.5587  XXZ=             32.6719  XZZ=              2.3273  YZZ=             -2.5392
  YYZ=              8.0524  XYZ=             -9.7863
 Hexadecapole moment (field-independent basis, Debye-Ang**3):
 XXXX=          -1760.4619 YYYY=           -367.6552 ZZZZ=           -123.2435 XXXY=             14.0858
 XXXZ=            -50.2421 YYYX=             19.0921 YYYZ=            -16.2398 ZZZX=            -19.6034
 ZZZY=             -9.2584 XXYY=           -405.8124 XXZZ=           -281.3345 YYZZ=            -74.6751
 XXYZ=            -12.5897 YYXZ=             -3.9786 ZZXY=             18.5130
 N-N= 4.478533427076D+02 E-N=-2.007740594739D+03  KE= 4.725061237478D+02
 Entering OneElI...
 OneElI was handed   134166394 working-precision words.
 Calculate electrostatic properties
    NBasis =   153  MinDer = 0  MaxDer = 0
    NGrid  =    18  NMatD  =   1
 Requested accuracy = 0.1000D-12
 ShPair: Thresh= 1.00D-13 NBox=     0 BxSize= 0.00D+00 RnKept= 1.28D+01
         NSMCal=                 1485 NSMKep=                1303
 PrsmSu:  NPrtUS=   8 ThrOK=T IAlg=1 NPAlg=1 LenDen=           0.
 Prism:   IPart=     0 DynPar=F LinDyn=F Incr=          29.
 PRISM was handed    16717323 working-precision words and  1303 shell-pairs
 PRISM was handed    16717323 working-precision words and  1303 shell-pairs
 PRISM was handed    16717323 working-precision words and  1303 shell-pairs
 PRISM was handed    16717323 working-precision words and  1303 shell-pairs
 PRISM was handed    16717323 working-precision words and  1303 shell-pairs
 PRISM was handed    16717323 working-precision words and  1303 shell-pairs
 PRISM was handed    16717323 working-precision words and  1303 shell-pairs
 PRISM was handed    16717323 working-precision words and  1303 shell-pairs
 IPart=  0 NShTot=        3330 NBatch=         185 AvBLen=        18.0
 IPart=  6 NShTot=        2700 NBatch=         150 AvBLen=        18.0
 IPart=  2 NShTot=        3060 NBatch=         170 AvBLen=        18.0
 IPart=  4 NShTot=        2844 NBatch=         158 AvBLen=        18.0
 IPart=  5 NShTot=        2808 NBatch=         156 AvBLen=        18.0
 IPart=  7 NShTot=        2628 NBatch=         146 AvBLen=        18.0
 IPart=  3 NShTot=        2916 NBatch=         162 AvBLen=        18.0
 IPart=  1 NShTot=        3168 NBatch=         176 AvBLen=        18.0
 PrSmSu:  NxtVal=            233.
 --------------------------------------------------------
       Center         ----      EFG at Nuclei      ----
                      3XX-RR        3YY-RR        3ZZ-RR
 --------------------------------------------------------
     1   Atom        0.894292     -0.526554     -0.367739
     2   Atom        0.192630      0.155344     -0.347973
     3   Atom        0.033882     -0.127263      0.093382
     4   Atom        0.136886      0.136202     -0.273088
     5   Atom       -0.068038      0.033632      0.034406
     6   Atom        0.137878      0.150795     -0.288674
     7   Atom        0.135248     -0.248963      0.113715
     8   Atom       -0.082457      0.036995      0.045462
     9   Atom        0.138360      0.143869     -0.282229
    10   Atom        0.140694     -0.251473      0.110779
    11   Atom        0.215567     -0.100538     -0.115030
    12   Atom        0.208508      0.607169     -0.815676
    13   Atom        0.522813     -0.430089     -0.092724
    14   Atom        0.402134      0.183974     -0.586108
    15   Atom        1.902717     -0.707800     -1.194917
    16   Atom        0.000425     -0.035941      0.035515
    17   Atom       -0.187961      0.068249      0.119712
    18   Atom       -0.044618      0.151482     -0.106864
 --------------------------------------------------------
                        XY            XZ            YZ
 --------------------------------------------------------
     1   Atom        0.259122      0.264479      0.122720
     2   Atom        0.026653     -0.116538      0.059074
     3   Atom       -0.005796      0.014458      0.072699
     4   Atom        0.004153     -0.005997      0.018614
     5   Atom        0.037725      0.020511     -0.035540
     6   Atom       -0.003450     -0.001476      0.007787
     7   Atom       -0.034707      0.011622      0.122364
     8   Atom       -0.059541     -0.025587     -0.050745
     9   Atom       -0.007866     -0.002192      0.009848
    10   Atom       -0.019858      0.004603      0.132271
    11   Atom        0.208620      0.451363     -0.214812
    12   Atom        1.213956     -0.140769     -0.089578
    13   Atom       -0.053590     -0.514479      1.169558
    14   Atom        0.000162     -0.056912      0.366379
    15   Atom       -0.150342     -0.207641      0.231268
    16   Atom        0.225479      0.187896     -0.159439
    17   Atom       -0.149148     -0.041729     -0.017571
    18   Atom        0.093814     -0.301088      0.143213
 --------------------------------------------------------


 ---------------------------------------------------------------------------------
              Nuclear Quadrupole Coupling Constant in Principal Axis System
 ---------------------------------------------------------------------------------

       Atom             a.u.   MegaHertz   Gauss  10(-4) cm-1        Axes

              Baa    -0.6028     2.895     1.033     0.966 -0.0930  0.9217 -0.3765
     1 N(14)  Bbb    -0.3955     1.900     0.678     0.634 -0.2544  0.3436  0.9040
              Bcc     0.9984    -4.795    -1.711    -1.599  0.9626  0.1799  0.2025
 

 ---------------------------------------------------------------------------------

 No NMR shielding tensors so no spin-rotation constants.
 Leave Link  601 at Mon Apr  3 11:29:58 2023, MaxMem=   134217728 cpu:         1.0
 FitSet:  NAtFit=    18 NAtPot=    18 NAtFrz=     0 MDM=    22 TotChg=   0.00000
 Merz-Kollman atomic radii used.
 Atom Element Radius
    1     7    1.50
    2     1    1.20
    3     6    1.50
    4     1    1.20
    5     6    1.50
    6     1    1.20
    7     1    1.20
    8     6    1.50
    9     1    1.20
   10     1    1.20
   11     6    1.50
   12     8    1.40
   13     8    1.40
   14     6    1.50
   15     8    1.40
   16     1    1.20
   17     1    1.20
   18     1    1.20
 Generate VDW surfaces: Layer= 4 Dens= 6 Start= 1.400 Inc= 0.200

 **********************************************************************

            Electrostatic Properties Using The SCF Density

 **********************************************************************

       Atomic Center    1 is at   1.825236  1.751765  0.018690
       Atomic Center    2 is at   1.604259  1.869275 -0.967632
       Atomic Center    3 is at   1.532838  0.371749  0.399227
       Atomic Center    4 is at   1.555235  0.325959  1.496848
       Atomic Center    5 is at   0.206438 -0.197814 -0.095248
       Atomic Center    6 is at   0.196969 -0.179358 -1.190300
       Atomic Center    7 is at   0.127377 -1.242261  0.217395
       Atomic Center    8 is at  -0.984979  0.602093  0.444947
       Atomic Center    9 is at  -0.978092  0.581687  1.538873
       Atomic Center   10 is at  -0.943247  1.636595  0.106336
       Atomic Center   11 is at  -2.277757  0.017193 -0.050686
       Atomic Center   12 is at  -2.962773  0.500988 -0.918994
       Atomic Center   13 is at  -2.660362 -1.148478  0.502995
       Atomic Center   14 is at   2.697703 -0.488191 -0.031031
       Atomic Center   15 is at   2.594483 -1.605487 -0.478786
       Atomic Center   16 is at   1.202990  2.375364  0.522500
       Atomic Center   17 is at   3.687905 -0.017628  0.100424
       Atomic Center   18 is at  -2.046295 -1.418344  1.199749
      ESP Fit Center   19 is at   2.234926  1.751765  2.078339
      ESP Fit Center   20 is at   2.030081  2.106567  2.078339
      ESP Fit Center   21 is at   2.628871  1.751765  1.958837
      ESP Fit Center   22 is at   2.521205  2.153583  1.958837
      ESP Fit Center   23 is at   2.227054  2.447733  1.958837
      ESP Fit Center   24 is at   2.991934  1.751765  1.764776
      ESP Fit Center   25 is at   2.913149  2.173225  1.764776
      ESP Fit Center   26 is at   2.687436  2.537764  1.764776
      ESP Fit Center   27 is at   2.345278  2.796150  1.764776
      ESP Fit Center   28 is at   2.913149  1.330305  1.764776
      ESP Fit Center   29 is at   3.310160  1.751765  1.503614
      ESP Fit Center   30 is at   3.250010  2.170116  1.503614
      ESP Fit Center   31 is at   3.074434  2.554576  1.503614
      ESP Fit Center   32 is at   2.797655  2.873996  1.503614
      ESP Fit Center   33 is at   2.442096  3.102500  1.503614
      ESP Fit Center   34 is at   3.250010  1.333413  1.503614
      ESP Fit Center   35 is at   3.571322  1.751765  1.185388
      ESP Fit Center   36 is at   3.520584  2.169631  1.185388
      ESP Fit Center   37 is at   3.371319  2.563212  1.185388
      ESP Fit Center   38 is at   3.132200  2.909634  1.185388
      ESP Fit Center   39 is at   2.817126  3.188766  1.185388
      ESP Fit Center   40 is at   2.444407  3.384384  1.185388
      ESP Fit Center   41 is at   3.520584  1.333899  1.185388
      ESP Fit Center   42 is at   3.765383  1.751765  0.822325
      ESP Fit Center   43 is at   3.720023  2.168839  0.822325
      ESP Fit Center   44 is at   3.586066  2.566412  0.822325
      ESP Fit Center   45 is at   3.369774  2.925892  0.822325
      ESP Fit Center   46 is at   3.081261  3.230471  0.822325
      ESP Fit Center   47 is at   2.734017  3.465908  0.822325
      ESP Fit Center   48 is at   2.344280  3.621194  0.822325
      ESP Fit Center   49 is at   3.884885  1.751765  0.428380
      ESP Fit Center   50 is at   3.842724  2.166369  0.428380
      ESP Fit Center   51 is at   3.717967  2.564000  0.428380
      ESP Fit Center   52 is at   3.515721  2.928377  0.428380
      ESP Fit Center   53 is at   3.244266  3.244584  0.428380
      ESP Fit Center   54 is at   2.914716  3.499674  0.428380
      ESP Fit Center   55 is at   2.540563  3.683205  0.428380
      ESP Fit Center   56 is at   2.137124  3.787663  0.428380
      ESP Fit Center   57 is at   3.925236  1.751765  0.018690
      ESP Fit Center   58 is at   3.884885  2.161455  0.018690
      ESP Fit Center   59 is at   3.765383  2.555400  0.018690
      ESP Fit Center   60 is at   3.571322  2.918462  0.018690
      ESP Fit Center   61 is at   3.310160  3.236689  0.018690
      ESP Fit Center   62 is at   2.991934  3.497851  0.018690
      ESP Fit Center   63 is at   2.628871  3.691912  0.018690
      ESP Fit Center   64 is at   2.234926  3.811414  0.018690
      ESP Fit Center   65 is at   3.884885  1.751765 -0.391000
      ESP Fit Center   66 is at   3.842724  2.166369 -0.391000
      ESP Fit Center   67 is at   3.717967  2.564000 -0.391000
      ESP Fit Center   68 is at   3.515721  2.928377 -0.391000
      ESP Fit Center   69 is at   3.244266  3.244584 -0.391000
      ESP Fit Center   70 is at   2.914716  3.499674 -0.391000
      ESP Fit Center   71 is at   2.540563  3.683205 -0.391000
      ESP Fit Center   72 is at   2.137124  3.787663 -0.391000
      ESP Fit Center   73 is at   1.720917  3.808770 -0.391000
      ESP Fit Center   74 is at   3.765383  1.751765 -0.784945
      ESP Fit Center   75 is at   3.720023  2.168839 -0.784945
      ESP Fit Center   76 is at   3.586066  2.566412 -0.784945
      ESP Fit Center   77 is at   3.369774  2.925892 -0.784945
      ESP Fit Center   78 is at   3.081261  3.230471 -0.784945
      ESP Fit Center   79 is at   2.734017  3.465908 -0.784945
      ESP Fit Center   80 is at   2.344280  3.621194 -0.784945
      ESP Fit Center   81 is at   1.930273  3.689067 -0.784945
      ESP Fit Center   82 is at   1.511355  3.666353 -0.784945
      ESP Fit Center   83 is at   1.107114  3.554116 -0.784945
      ESP Fit Center   84 is at   0.736451  3.357603 -0.784945
      ESP Fit Center   85 is at   0.416698  3.086003 -0.784945
      ESP Fit Center   86 is at   0.162807  2.752015 -0.784945
      ESP Fit Center   87 is at   3.571322  1.751765 -1.148007
      ESP Fit Center   88 is at   3.520584  2.169631 -1.148007
      ESP Fit Center   89 is at   3.371319  2.563212 -1.148007
      ESP Fit Center   90 is at   3.132200  2.909634 -1.148007
      ESP Fit Center   91 is at   2.817126  3.188766 -1.148007
      ESP Fit Center   92 is at   2.444407  3.384384 -1.148007
      ESP Fit Center   93 is at   2.035703  3.485120 -1.148007
      ESP Fit Center   94 is at   3.520584  1.333899 -1.148007
      ESP Fit Center   95 is at   3.310160  1.751765 -1.466234
      ESP Fit Center   96 is at   3.250010  2.170116 -1.466234
      ESP Fit Center   97 is at   3.074434  2.554576 -1.466234
      ESP Fit Center   98 is at   3.250010  1.333413 -1.466234
      ESP Fit Center   99 is at   0.888950  3.389384 -0.967632
      ESP Fit Center  100 is at   0.533387  3.163737 -0.967632
      ESP Fit Center  101 is at   0.245110  2.856754 -0.967632
      ESP Fit Center  102 is at   0.042235  2.487724 -0.967632
      ESP Fit Center  103 is at   2.751720  3.016736 -1.402448
      ESP Fit Center  104 is at   2.415637  3.274622 -1.402448
      ESP Fit Center  105 is at   2.024259  3.436736 -1.402448
      ESP Fit Center  106 is at   1.604259  3.492030 -1.402448
      ESP Fit Center  107 is at   1.184259  3.436736 -1.402448
      ESP Fit Center  108 is at   0.792881  3.274622 -1.402448
      ESP Fit Center  109 is at   0.456798  3.016736 -1.402448
      ESP Fit Center  110 is at   0.198912  2.680653 -1.402448
      ESP Fit Center  111 is at   0.036798  2.289275 -1.402448
      ESP Fit Center  112 is at  -0.018496  1.869275 -1.402448
      ESP Fit Center  113 is at   3.059182  1.869275 -1.807632
      ESP Fit Center  114 is at   2.994544  2.298121 -1.807632
      ESP Fit Center  115 is at   2.806373  2.688862 -1.807632
      ESP Fit Center  116 is at   2.511388  3.006779 -1.807632
      ESP Fit Center  117 is at   2.135802  3.223624 -1.807632
      ESP Fit Center  118 is at   1.712986  3.320129 -1.807632
      ESP Fit Center  119 is at   1.280508  3.287720 -1.807632
      ESP Fit Center  120 is at   0.876798  3.129275 -1.807632
      ESP Fit Center  121 is at   0.537725  2.858874 -1.807632
      ESP Fit Center  122 is at   0.293419  2.500542 -1.807632
      ESP Fit Center  123 is at   0.165587  2.086120 -1.807632
      ESP Fit Center  124 is at   0.165587  1.652430 -1.807632
      ESP Fit Center  125 is at   1.712986  0.418421 -1.807632
      ESP Fit Center  126 is at   2.135802  0.514926 -1.807632
      ESP Fit Center  127 is at   2.511388  0.731771 -1.807632
      ESP Fit Center  128 is at   2.806373  1.049688 -1.807632
      ESP Fit Center  129 is at   2.994544  1.440429 -1.807632
      ESP Fit Center  130 is at   2.792198  1.869275 -2.155571
      ESP Fit Center  131 is at   2.711980  2.298408 -2.155571
      ESP Fit Center  132 is at   2.482157  2.669585 -2.155571
      ESP Fit Center  133 is at   2.133769  2.932675 -2.155571
      ESP Fit Center  134 is at   1.713868  3.052147 -2.155571
      ESP Fit Center  135 is at   1.279164  3.011866 -2.155571
      ESP Fit Center  136 is at   0.888366  2.817271 -2.155571
      ESP Fit Center  137 is at   0.594253  2.494644 -2.155571
      ESP Fit Center  138 is at   0.436547  2.087558 -2.155571
      ESP Fit Center  139 is at   0.436547  1.650992 -2.155571
      ESP Fit Center  140 is at   0.594253  1.243905 -2.155571
      ESP Fit Center  141 is at   1.279164  0.726684 -2.155571
      ESP Fit Center  142 is at   1.713868  0.686403 -2.155571
      ESP Fit Center  143 is at   2.133769  0.805875 -2.155571
      ESP Fit Center  144 is at   2.482157  1.068965 -2.155571
      ESP Fit Center  145 is at   2.711980  1.440142 -2.155571
      ESP Fit Center  146 is at   2.444259  1.869275 -2.422555
      ESP Fit Center  147 is at   2.331720  2.289275 -2.422555
      ESP Fit Center  148 is at   2.024259  2.596736 -2.422555
      ESP Fit Center  149 is at   1.604259  2.709275 -2.422555
      ESP Fit Center  150 is at   1.184259  2.596736 -2.422555
      ESP Fit Center  151 is at   0.876798  2.289275 -2.422555
      ESP Fit Center  152 is at   0.764259  1.869275 -2.422555
      ESP Fit Center  153 is at   0.876798  1.449275 -2.422555
      ESP Fit Center  154 is at   1.184259  1.141814 -2.422555
      ESP Fit Center  155 is at   1.604259  1.029275 -2.422555
      ESP Fit Center  156 is at   2.024259  1.141814 -2.422555
      ESP Fit Center  157 is at   2.331720  1.449275 -2.422555
      ESP Fit Center  158 is at   2.039075  1.869275 -2.590387
      ESP Fit Center  159 is at   1.821667  2.245837 -2.590387
      ESP Fit Center  160 is at   1.386851  2.245837 -2.590387
      ESP Fit Center  161 is at   1.169443  1.869275 -2.590387
      ESP Fit Center  162 is at   1.386851  1.492713 -2.590387
      ESP Fit Center  163 is at   1.821667  1.492713 -2.590387
      ESP Fit Center  164 is at   1.604259  1.869275 -2.647632
      ESP Fit Center  165 is at   3.228186  0.789615  1.565925
      ESP Fit Center  166 is at   1.322371 -1.361606  1.565925
      ESP Fit Center  167 is at   1.555235  0.325959  3.176848
      ESP Fit Center  168 is at   1.990051  0.325959  3.119603
      ESP Fit Center  169 is at   1.772643  0.702521  3.119603
      ESP Fit Center  170 is at   1.337827  0.702521  3.119603
      ESP Fit Center  171 is at   1.120419  0.325959  3.119603
      ESP Fit Center  172 is at   1.337827 -0.050603  3.119603
      ESP Fit Center  173 is at   1.772643 -0.050603  3.119603
      ESP Fit Center  174 is at   2.395235  0.325959  2.951771
      ESP Fit Center  175 is at   2.282696  0.745959  2.951771
      ESP Fit Center  176 is at   1.975235  1.053420  2.951771
      ESP Fit Center  177 is at   1.555235  1.165959  2.951771
      ESP Fit Center  178 is at   1.135235  1.053420  2.951771
      ESP Fit Center  179 is at   0.827774  0.745959  2.951771
      ESP Fit Center  180 is at   0.715235  0.325959  2.951771
      ESP Fit Center  181 is at   0.827774 -0.094041  2.951771
      ESP Fit Center  182 is at   1.135235 -0.401502  2.951771
      ESP Fit Center  183 is at   1.555235 -0.514041  2.951771
      ESP Fit Center  184 is at   1.975235 -0.401502  2.951771
      ESP Fit Center  185 is at   2.282696 -0.094041  2.951771
      ESP Fit Center  186 is at   2.743174  0.325959  2.684787
      ESP Fit Center  187 is at   2.662956  0.755092  2.684787
      ESP Fit Center  188 is at   2.433133  1.126269  2.684787
      ESP Fit Center  189 is at   2.084745  1.389359  2.684787
      ESP Fit Center  190 is at   1.664844  1.508831  2.684787
      ESP Fit Center  191 is at   1.230140  1.468550  2.684787
      ESP Fit Center  192 is at   0.839342  1.273955  2.684787
      ESP Fit Center  193 is at   0.545229  0.951328  2.684787
      ESP Fit Center  194 is at   0.387523  0.544242  2.684787
      ESP Fit Center  195 is at   0.387523  0.107676  2.684787
      ESP Fit Center  196 is at   0.545229 -0.299411  2.684787
      ESP Fit Center  197 is at   0.839342 -0.622037  2.684787
      ESP Fit Center  198 is at   1.230140 -0.816632  2.684787
      ESP Fit Center  199 is at   1.664844 -0.856913  2.684787
      ESP Fit Center  200 is at   2.084745 -0.737441  2.684787
      ESP Fit Center  201 is at   2.433133 -0.474351  2.684787
      ESP Fit Center  202 is at   2.662956 -0.103174  2.684787
      ESP Fit Center  203 is at   3.010158  0.325959  2.336848
      ESP Fit Center  204 is at   2.945520  0.754805  2.336848
      ESP Fit Center  205 is at   2.757349  1.145546  2.336848
      ESP Fit Center  206 is at   2.462365  1.463463  2.336848
      ESP Fit Center  207 is at   2.086778  1.680308  2.336848
      ESP Fit Center  208 is at   1.663962  1.776813  2.336848
      ESP Fit Center  209 is at   1.231484  1.744404  2.336848
      ESP Fit Center  210 is at   0.827774  1.585959  2.336848
      ESP Fit Center  211 is at   0.488701  1.315558  2.336848
      ESP Fit Center  212 is at   0.244395 -0.305308  2.336848
      ESP Fit Center  213 is at   0.488701 -0.663640  2.336848
      ESP Fit Center  214 is at   0.827774 -0.934041  2.336848
      ESP Fit Center  215 is at   1.231484 -1.092486  2.336848
      ESP Fit Center  216 is at   1.663962 -1.124895  2.336848
      ESP Fit Center  217 is at   2.086778 -1.028390  2.336848
      ESP Fit Center  218 is at   2.462365 -0.811545  2.336848
      ESP Fit Center  219 is at   2.757349 -0.493628  2.336848
      ESP Fit Center  220 is at   2.945520 -0.102887  2.336848
      ESP Fit Center  221 is at   3.177990  0.325959  1.931664
      ESP Fit Center  222 is at   3.122696  0.745959  1.931664
      ESP Fit Center  223 is at   2.960582  1.137337  1.931664
      ESP Fit Center  224 is at   2.702696  1.473420  1.931664
      ESP Fit Center  225 is at   0.407774  1.473420  1.931664
      ESP Fit Center  226 is at   0.407774 -0.821502  1.931664
      ESP Fit Center  227 is at   0.743857 -1.079388  1.931664
      ESP Fit Center  228 is at   1.135235 -1.241502  1.931664
      ESP Fit Center  229 is at   1.555235 -1.296796  1.931664
      ESP Fit Center  230 is at   1.975235 -1.241502  1.931664
      ESP Fit Center  231 is at  -0.195380 -0.893783  1.844899
      ESP Fit Center  232 is at  -1.100526 -1.355683 -1.261945
      ESP Fit Center  233 is at  -0.785452 -1.634815 -1.261945
      ESP Fit Center  234 is at  -0.412733 -1.830433 -1.261945
      ESP Fit Center  235 is at  -0.223031  1.388103 -1.625116
      ESP Fit Center  236 is at  -0.614409  1.225989 -1.625116
      ESP Fit Center  237 is at  -0.950492  0.968103 -1.625116
      ESP Fit Center  238 is at  -1.208378 -0.990736 -1.625116
      ESP Fit Center  239 is at  -0.950492 -1.326819 -1.625116
      ESP Fit Center  240 is at  -0.614409 -1.584705 -1.625116
      ESP Fit Center  241 is at  -0.223031 -1.746819 -1.625116
      ESP Fit Center  242 is at   0.196969 -1.802113 -1.625116
      ESP Fit Center  243 is at   0.616969 -1.746819 -1.625116
      ESP Fit Center  244 is at   1.651892 -0.179358 -2.030300
      ESP Fit Center  245 is at   1.587254  0.249488 -2.030300
      ESP Fit Center  246 is at   0.305696  1.271496 -2.030300
      ESP Fit Center  247 is at  -0.126782  1.239087 -2.030300
      ESP Fit Center  248 is at  -0.530492  1.080642 -2.030300
      ESP Fit Center  249 is at  -0.869565  0.810241 -2.030300
      ESP Fit Center  250 is at  -1.113871  0.451909 -2.030300
      ESP Fit Center  251 is at  -1.241703  0.037487 -2.030300
      ESP Fit Center  252 is at  -1.241703 -0.396203 -2.030300
      ESP Fit Center  253 is at  -1.113871 -0.810625 -2.030300
      ESP Fit Center  254 is at  -0.869565 -1.168957 -2.030300
      ESP Fit Center  255 is at  -0.530492 -1.439358 -2.030300
      ESP Fit Center  256 is at  -0.126782 -1.597803 -2.030300
      ESP Fit Center  257 is at   0.305696 -1.630213 -2.030300
      ESP Fit Center  258 is at   0.728512 -1.533707 -2.030300
      ESP Fit Center  259 is at   1.104099 -1.316862 -2.030300
      ESP Fit Center  260 is at   1.399083 -0.998945 -2.030300
      ESP Fit Center  261 is at   1.587254 -0.608204 -2.030300
      ESP Fit Center  262 is at   1.384908 -0.179358 -2.378239
      ESP Fit Center  263 is at   1.304690  0.249775 -2.378239
      ESP Fit Center  264 is at   1.074867  0.620951 -2.378239
      ESP Fit Center  265 is at   0.726479  0.884042 -2.378239
      ESP Fit Center  266 is at   0.306578  1.003514 -2.378239
      ESP Fit Center  267 is at  -0.128126  0.963232 -2.378239
      ESP Fit Center  268 is at  -0.518924  0.768638 -2.378239
      ESP Fit Center  269 is at  -0.813037  0.446011 -2.378239
      ESP Fit Center  270 is at  -0.970743  0.038925 -2.378239
      ESP Fit Center  271 is at  -0.970743 -0.397641 -2.378239
      ESP Fit Center  272 is at  -0.813037 -0.804728 -2.378239
      ESP Fit Center  273 is at  -0.518924 -1.127354 -2.378239
      ESP Fit Center  274 is at  -0.128126 -1.321949 -2.378239
      ESP Fit Center  275 is at   0.306578 -1.362230 -2.378239
      ESP Fit Center  276 is at   0.726479 -1.242758 -2.378239
      ESP Fit Center  277 is at   1.074867 -0.979668 -2.378239
      ESP Fit Center  278 is at   1.304690 -0.608491 -2.378239
      ESP Fit Center  279 is at   1.036969 -0.179358 -2.645223
      ESP Fit Center  280 is at   0.924430  0.240642 -2.645223
      ESP Fit Center  281 is at   0.616969  0.548103 -2.645223
      ESP Fit Center  282 is at   0.196969  0.660642 -2.645223
      ESP Fit Center  283 is at  -0.223031  0.548103 -2.645223
      ESP Fit Center  284 is at  -0.530492  0.240642 -2.645223
      ESP Fit Center  285 is at  -0.643031 -0.179358 -2.645223
      ESP Fit Center  286 is at  -0.530492 -0.599358 -2.645223
      ESP Fit Center  287 is at  -0.223031 -0.906819 -2.645223
      ESP Fit Center  288 is at   0.196969 -1.019358 -2.645223
      ESP Fit Center  289 is at   0.616969 -0.906819 -2.645223
      ESP Fit Center  290 is at   0.924430 -0.599358 -2.645223
      ESP Fit Center  291 is at   0.631785 -0.179358 -2.813055
      ESP Fit Center  292 is at   0.414377  0.197204 -2.813055
      ESP Fit Center  293 is at  -0.020439  0.197204 -2.813055
      ESP Fit Center  294 is at  -0.237847 -0.179358 -2.813055
      ESP Fit Center  295 is at  -0.020439 -0.555920 -2.813055
      ESP Fit Center  296 is at   0.414377 -0.555920 -2.813055
      ESP Fit Center  297 is at   0.196969 -0.179358 -2.870300
      ESP Fit Center  298 is at   0.127377 -1.242261  1.897395
      ESP Fit Center  299 is at   0.562193 -1.242261  1.840150
      ESP Fit Center  300 is at  -0.307439 -1.242261  1.840150
      ESP Fit Center  301 is at  -0.090031 -1.618823  1.840150
      ESP Fit Center  302 is at   0.344785 -1.618823  1.840150
      ESP Fit Center  303 is at   0.967377 -1.242261  1.672318
      ESP Fit Center  304 is at  -0.292623 -1.969722  1.672318
      ESP Fit Center  305 is at   0.127377 -2.082261  1.672318
      ESP Fit Center  306 is at   0.547377 -1.969722  1.672318
      ESP Fit Center  307 is at   0.854838 -1.662261  1.672318
      ESP Fit Center  308 is at  -0.197718 -2.384852  1.405334
      ESP Fit Center  309 is at   0.236986 -2.425133  1.405334
      ESP Fit Center  310 is at   0.656887 -2.305661  1.405334
      ESP Fit Center  311 is at   1.005275 -2.042571  1.405334
      ESP Fit Center  312 is at   1.235098 -1.671394  1.405334
      ESP Fit Center  313 is at  -0.600084 -2.502261  1.057395
      ESP Fit Center  314 is at  -0.196374 -2.660706  1.057395
      ESP Fit Center  315 is at   0.236104 -2.693116  1.057395
      ESP Fit Center  316 is at   0.658920 -2.596610  1.057395
      ESP Fit Center  317 is at   1.034507 -2.379765  1.057395
      ESP Fit Center  318 is at   1.329491 -2.061848  1.057395
      ESP Fit Center  319 is at  -0.684001 -2.647609  0.652211
      ESP Fit Center  320 is at  -0.292623 -2.809722  0.652211
      ESP Fit Center  321 is at   0.127377 -2.865016  0.652211
      ESP Fit Center  322 is at   0.547377 -2.809722  0.652211
      ESP Fit Center  323 is at   0.938755 -2.647609  0.652211
      ESP Fit Center  324 is at  -0.943495 -2.536723  0.217395
      ESP Fit Center  325 is at  -0.587932 -2.762371  0.217395
      ESP Fit Center  326 is at  -0.187423 -2.892504  0.217395
      ESP Fit Center  327 is at   0.232865 -2.918946  0.217395
      ESP Fit Center  328 is at   0.646526 -2.840036  0.217395
      ESP Fit Center  329 is at   1.027566 -2.660732  0.217395
      ESP Fit Center  330 is at  -1.020084 -2.389722 -0.217421
      ESP Fit Center  331 is at  -0.684001 -2.647609 -0.217421
      ESP Fit Center  332 is at  -0.292623 -2.809722 -0.217421
      ESP Fit Center  333 is at   0.127377 -2.865016 -0.217421
      ESP Fit Center  334 is at   0.547377 -2.809722 -0.217421
      ESP Fit Center  335 is at   0.938755 -2.647609 -0.217421
      ESP Fit Center  336 is at  -1.183463 -1.873528 -0.622605
      ESP Fit Center  337 is at  -0.939157 -2.231860 -0.622605
      ESP Fit Center  338 is at  -0.600084 -2.502261 -0.622605
      ESP Fit Center  339 is at  -0.196374 -2.660706 -0.622605
      ESP Fit Center  340 is at   0.236104 -2.693116 -0.622605
      ESP Fit Center  341 is at   0.658920 -2.596610 -0.622605
      ESP Fit Center  342 is at  -0.882629 -1.867631 -0.970544
      ESP Fit Center  343 is at  -0.588516 -2.190257 -0.970544
      ESP Fit Center  344 is at  -0.197718 -2.384852 -0.970544
      ESP Fit Center  345 is at   0.236986 -2.425133 -0.970544
      ESP Fit Center  346 is at   0.656887 -2.305661 -0.970544
      ESP Fit Center  347 is at  -0.292623 -1.969722 -1.237528
      ESP Fit Center  348 is at   0.127377 -2.082261 -1.237528
      ESP Fit Center  349 is at   0.547377 -1.969722 -1.237528
      ESP Fit Center  350 is at  -0.365808  2.234712  1.611645
      ESP Fit Center  351 is at  -1.604150  2.234712  1.611645
      ESP Fit Center  352 is at  -1.976869  2.039094  1.611645
      ESP Fit Center  353 is at  -2.291943  1.759962  1.611645
      ESP Fit Center  354 is at  -2.531061  1.413540  1.611645
      ESP Fit Center  355 is at  -2.073764  2.207931  1.248582
      ESP Fit Center  356 is at  -2.393517  1.936331  1.248582
      ESP Fit Center  357 is at  -2.547754  1.943692  0.854637
      ESP Fit Center  358 is at  -0.978092  0.581687  3.218873
      ESP Fit Center  359 is at  -0.543276  0.581687  3.161628
      ESP Fit Center  360 is at  -0.760684  0.958249  3.161628
      ESP Fit Center  361 is at  -1.195500  0.958249  3.161628
      ESP Fit Center  362 is at  -1.412908  0.581687  3.161628
      ESP Fit Center  363 is at  -1.195500  0.205125  3.161628
      ESP Fit Center  364 is at  -0.760684  0.205125  3.161628
      ESP Fit Center  365 is at  -0.138092  0.581687  2.993796
      ESP Fit Center  366 is at  -0.250631  1.001687  2.993796
      ESP Fit Center  367 is at  -0.558092  1.309148  2.993796
      ESP Fit Center  368 is at  -0.978092  1.421687  2.993796
      ESP Fit Center  369 is at  -1.398092  1.309148  2.993796
      ESP Fit Center  370 is at  -1.705553  1.001687  2.993796
      ESP Fit Center  371 is at  -1.818092  0.581687  2.993796
      ESP Fit Center  372 is at  -1.705553  0.161687  2.993796
      ESP Fit Center  373 is at  -1.398092 -0.145774  2.993796
      ESP Fit Center  374 is at  -0.978092 -0.258313  2.993796
      ESP Fit Center  375 is at  -0.558092 -0.145774  2.993796
      ESP Fit Center  376 is at  -0.250631  0.161687  2.993796
      ESP Fit Center  377 is at   0.209847  0.581687  2.726812
      ESP Fit Center  378 is at   0.129629  1.010820  2.726812
      ESP Fit Center  379 is at  -0.100194  1.381996  2.726812
      ESP Fit Center  380 is at  -0.448582  1.645087  2.726812
      ESP Fit Center  381 is at  -0.868483  1.764559  2.726812
      ESP Fit Center  382 is at  -1.303187  1.724277  2.726812
      ESP Fit Center  383 is at  -1.693985  1.529683  2.726812
      ESP Fit Center  384 is at  -1.988098  1.207056  2.726812
      ESP Fit Center  385 is at  -2.145804  0.799970  2.726812
      ESP Fit Center  386 is at  -2.145804  0.363404  2.726812
      ESP Fit Center  387 is at  -1.988098 -0.043683  2.726812
      ESP Fit Center  388 is at  -1.693985 -0.366309  2.726812
      ESP Fit Center  389 is at  -1.303187 -0.560904  2.726812
      ESP Fit Center  390 is at  -0.868483 -0.601185  2.726812
      ESP Fit Center  391 is at  -0.448582 -0.481713  2.726812
      ESP Fit Center  392 is at  -0.100194 -0.218623  2.726812
      ESP Fit Center  393 is at   0.129629  0.152554  2.726812
      ESP Fit Center  394 is at   0.224022  1.401274  2.378873
      ESP Fit Center  395 is at  -0.070962  1.719191  2.378873
      ESP Fit Center  396 is at  -0.446549  1.936036  2.378873
      ESP Fit Center  397 is at  -0.869365  2.032541  2.378873
      ESP Fit Center  398 is at  -1.301843  2.000132  2.378873
      ESP Fit Center  399 is at  -1.705553  1.841687  2.378873
      ESP Fit Center  400 is at  -2.044626  1.571286  2.378873
      ESP Fit Center  401 is at  -2.288932  1.212954  2.378873
      ESP Fit Center  402 is at  -2.416764  0.798532  2.378873
      ESP Fit Center  403 is at  -2.416764  0.364842  2.378873
      ESP Fit Center  404 is at  -2.288932 -0.049580  2.378873
      ESP Fit Center  405 is at  -0.869365 -0.869168  2.378873
      ESP Fit Center  406 is at  -0.446549 -0.772662  2.378873
      ESP Fit Center  407 is at  -0.070962 -0.555817  2.378873
      ESP Fit Center  408 is at   0.224022 -0.237900  2.378873
      ESP Fit Center  409 is at   0.169369  1.729148  1.973689
      ESP Fit Center  410 is at  -0.166714  1.987034  1.973689
      ESP Fit Center  411 is at  -0.558092  2.149148  1.973689
      ESP Fit Center  412 is at  -0.978092  2.204442  1.973689
      ESP Fit Center  413 is at  -1.398092  2.149148  1.973689
      ESP Fit Center  414 is at  -1.789470  1.987034  1.973689
      ESP Fit Center  415 is at  -2.125553  1.729148  1.973689
      ESP Fit Center  416 is at  -2.383439  1.393065  1.973689
      ESP Fit Center  417 is at  -2.545553  1.001687  1.973689
      ESP Fit Center  418 is at  -2.600847  0.581687  1.973689
      ESP Fit Center  419 is at  -0.558092 -0.985774  1.973689
      ESP Fit Center  420 is at  -0.166714 -0.823661  1.973689
      ESP Fit Center  421 is at   0.169369 -0.565774  1.973689
      ESP Fit Center  422 is at  -0.523247  2.364056  1.561259
      ESP Fit Center  423 is at  -0.943247  2.476595  1.561259
      ESP Fit Center  424 is at  -1.363247  2.364056  1.561259
      ESP Fit Center  425 is at  -0.413737  2.699995  1.294275
      ESP Fit Center  426 is at  -0.833638  2.819467  1.294275
      ESP Fit Center  427 is at  -1.268342  2.779185  1.294275
      ESP Fit Center  428 is at  -1.659140  2.584591  1.294275
      ESP Fit Center  429 is at  -1.953253  2.261964  1.294275
      ESP Fit Center  430 is at  -0.411704  2.990944  0.946336
      ESP Fit Center  431 is at  -0.834520  3.087449  0.946336
      ESP Fit Center  432 is at  -1.266998  3.055040  0.946336
      ESP Fit Center  433 is at  -1.670708  2.896595  0.946336
      ESP Fit Center  434 is at  -2.009781  2.626194  0.946336
      ESP Fit Center  435 is at  -2.254087  2.267862  0.946336
      ESP Fit Center  436 is at  -0.523247  3.204056  0.541152
      ESP Fit Center  437 is at  -0.943247  3.259350  0.541152
      ESP Fit Center  438 is at  -1.363247  3.204056  0.541152
      ESP Fit Center  439 is at  -1.754625  3.041942  0.541152
      ESP Fit Center  440 is at  -2.090708  2.784056  0.541152
      ESP Fit Center  441 is at  -2.348594  2.447973  0.541152
      ESP Fit Center  442 is at  -2.510708  2.056595  0.541152
      ESP Fit Center  443 is at  -0.424098  3.234370  0.106336
      ESP Fit Center  444 is at  -0.837759  3.313280  0.106336
      ESP Fit Center  445 is at  -1.258048  3.286837  0.106336
      ESP Fit Center  446 is at  -1.658556  3.156704  0.106336
      ESP Fit Center  447 is at  -2.014119  2.931057  0.106336
      ESP Fit Center  448 is at  -2.302396  2.624074  0.106336
      ESP Fit Center  449 is at  -2.505271  2.255044  0.106336
      ESP Fit Center  450 is at  -0.131869  3.041942 -0.328480
      ESP Fit Center  451 is at  -0.523247  3.204056 -0.328480
      ESP Fit Center  452 is at  -0.943247  3.259350 -0.328480
      ESP Fit Center  453 is at  -1.363247  3.204056 -0.328480
      ESP Fit Center  454 is at  -1.754625  3.041942 -0.328480
      ESP Fit Center  455 is at  -2.090708  2.784056 -0.328480
      ESP Fit Center  456 is at  -2.348594  2.447973 -0.328480
      ESP Fit Center  457 is at  -0.036118  2.774099 -0.733664
      ESP Fit Center  458 is at  -0.411704  2.990944 -0.733664
      ESP Fit Center  459 is at  -0.834520  3.087449 -0.733664
      ESP Fit Center  460 is at  -1.266998  3.055040 -0.733664
      ESP Fit Center  461 is at  -1.670708  2.896595 -0.733664
      ESP Fit Center  462 is at  -2.009781  2.626194 -0.733664
      ESP Fit Center  463 is at  -0.065349  2.436904 -1.081603
      ESP Fit Center  464 is at  -0.413737  2.699995 -1.081603
      ESP Fit Center  465 is at  -0.833638  2.819467 -1.081603
      ESP Fit Center  466 is at  -1.268342  2.779185 -1.081603
      ESP Fit Center  467 is at  -1.659140  2.584591 -1.081603
      ESP Fit Center  468 is at  -1.953253  2.261964 -1.081603
      ESP Fit Center  469 is at  -0.103247  1.636595 -1.348587
      ESP Fit Center  470 is at  -0.215786  2.056595 -1.348587
      ESP Fit Center  471 is at  -0.523247  2.364056 -1.348587
      ESP Fit Center  472 is at  -0.943247  2.476595 -1.348587
      ESP Fit Center  473 is at  -1.363247  2.364056 -1.348587
      ESP Fit Center  474 is at  -1.670708  2.056595 -1.348587
      ESP Fit Center  475 is at  -0.508431  1.636595 -1.516419
      ESP Fit Center  476 is at  -0.725839  2.013157 -1.516419
      ESP Fit Center  477 is at  -1.160655  2.013157 -1.516419
      ESP Fit Center  478 is at  -1.378063  1.636595 -1.516419
      ESP Fit Center  479 is at  -0.943247  1.636595 -1.573664
      ESP Fit Center  480 is at  -2.679575  0.713161  1.889461
      ESP Fit Center  481 is at  -2.973725  0.419010  1.889461
      ESP Fit Center  482 is at  -2.597039  1.139352  1.695400
      ESP Fit Center  483 is at  -2.980849  0.948238  1.695400
      ESP Fit Center  484 is at  -3.269703  0.631380  1.695400
      ESP Fit Center  485 is at  -3.424589  0.231573  1.695400
      ESP Fit Center  486 is at  -2.894617  1.367927  1.434238
      ESP Fit Center  487 is at  -3.250176  1.139424  1.434238
      ESP Fit Center  488 is at  -3.526955  0.820003  1.434238
      ESP Fit Center  489 is at  -3.702531  0.435544  1.434238
      ESP Fit Center  490 is at  -2.896928  1.649812  1.116012
      ESP Fit Center  491 is at  -3.269647  1.454194  1.116012
      ESP Fit Center  492 is at  -3.584721  1.175062  1.116012
      ESP Fit Center  493 is at  -3.823839  0.828640  1.116012
      ESP Fit Center  494 is at  -3.973105  0.435059  1.116012
      ESP Fit Center  495 is at  -2.591638  1.931781  0.752949
      ESP Fit Center  496 is at  -2.995879  1.819544  0.752949
      ESP Fit Center  497 is at  -3.366542  1.623031  0.752949
      ESP Fit Center  498 is at  -3.686295  1.351431  0.752949
      ESP Fit Center  499 is at  -3.940186  1.017443  0.752949
      ESP Fit Center  500 is at  -4.116343  0.636685  0.752949
      ESP Fit Center  501 is at  -4.206531  0.226960  0.752949
      ESP Fit Center  502 is at  -2.794013  2.011092  0.359004
      ESP Fit Center  503 is at  -1.658586 -1.615426 -1.217383
      ESP Fit Center  504 is at  -1.285867 -1.419808 -1.217383
      ESP Fit Center  505 is at  -2.489084 -1.452617 -1.535610
      ESP Fit Center  506 is at  -2.066430 -1.452617 -1.535610
      ESP Fit Center  507 is at  -1.660897 -1.333542 -1.535610
      ESP Fit Center  508 is at  -1.305338 -1.105038 -1.535610
      ESP Fit Center  509 is at  -2.170108 -1.144528 -1.796772
      ESP Fit Center  510 is at  -1.757715 -1.027192 -1.796772
      ESP Fit Center  511 is at  -1.415557 -0.768806 -1.796772
      ESP Fit Center  512 is at  -3.942273  1.107469  0.666679
      ESP Fit Center  513 is at  -3.170064  1.942726  0.392502
      ESP Fit Center  514 is at  -3.567851  1.825925  0.392502
      ESP Fit Center  515 is at  -3.916619  1.601785  0.392502
      ESP Fit Center  516 is at  -4.188112  1.288466  0.392502
      ESP Fit Center  517 is at  -4.360336  0.911349  0.392502
      ESP Fit Center  518 is at  -4.419337  0.500988  0.392502
      ESP Fit Center  519 is at  -4.360336  0.090626  0.392502
      ESP Fit Center  520 is at  -2.856192  2.195048  0.061006
      ESP Fit Center  521 is at  -3.280836  2.168332  0.061006
      ESP Fit Center  522 is at  -3.685495  2.036850  0.061006
      ESP Fit Center  523 is at  -4.044743  1.808865  0.061006
      ESP Fit Center  524 is at  -4.336006  1.498700  0.061006
      ESP Fit Center  525 is at  -4.540985  1.125846  0.061006
      ESP Fit Center  526 is at  -4.646798  0.713730  0.061006
      ESP Fit Center  527 is at  -4.646798  0.288246  0.061006
      ESP Fit Center  528 is at  -4.540985 -0.123870  0.061006
      ESP Fit Center  529 is at  -2.547978  2.318322 -0.313321
      ESP Fit Center  530 is at  -2.962773  2.365059 -0.313321
      ESP Fit Center  531 is at  -3.377568  2.318322 -0.313321
      ESP Fit Center  532 is at  -3.771563  2.180458 -0.313321
      ESP Fit Center  533 is at  -4.125002  1.958377 -0.313321
      ESP Fit Center  534 is at  -4.420162  1.663217 -0.313321
      ESP Fit Center  535 is at  -4.642243  1.309778 -0.313321
      ESP Fit Center  536 is at  -4.780108  0.915783 -0.313321
      ESP Fit Center  537 is at  -4.826844  0.500988 -0.313321
      ESP Fit Center  538 is at  -4.780108  0.086193 -0.313321
      ESP Fit Center  539 is at  -4.642243 -0.307802 -0.313321
      ESP Fit Center  540 is at  -4.420162 -0.661241 -0.313321
      ESP Fit Center  541 is at  -2.441290  2.379200 -0.714118
      ESP Fit Center  542 is at  -2.857242  2.447392 -0.714118
      ESP Fit Center  543 is at  -3.278129  2.424572 -0.714118
      ESP Fit Center  544 is at  -3.684270  2.311808 -0.714118
      ESP Fit Center  545 is at  -4.056674  2.114371 -0.714118
      ESP Fit Center  546 is at  -4.377929  1.841495 -0.714118
      ESP Fit Center  547 is at  -4.633013  1.505938 -0.714118
      ESP Fit Center  548 is at  -4.809998  1.123390 -0.714118
      ESP Fit Center  549 is at  -4.900609  0.711740 -0.714118
      ESP Fit Center  550 is at  -4.900609  0.290235 -0.714118
      ESP Fit Center  551 is at  -4.809998 -0.121415 -0.714118
      ESP Fit Center  552 is at  -4.633013 -0.503962 -0.714118
      ESP Fit Center  553 is at  -4.377929 -0.839519 -0.714118
      ESP Fit Center  554 is at  -2.049722  2.223185 -1.123870
      ESP Fit Center  555 is at  -2.441290  2.379200 -1.123870
      ESP Fit Center  556 is at  -2.857242  2.447392 -1.123870
      ESP Fit Center  557 is at  -3.278129  2.424572 -1.123870
      ESP Fit Center  558 is at  -3.684270  2.311808 -1.123870
      ESP Fit Center  559 is at  -4.056674  2.114371 -1.123870
      ESP Fit Center  560 is at  -4.377929  1.841495 -1.123870
      ESP Fit Center  561 is at  -4.633013  1.505938 -1.123870
      ESP Fit Center  562 is at  -4.809998  1.123390 -1.123870
      ESP Fit Center  563 is at  -4.900609  0.711740 -1.123870
      ESP Fit Center  564 is at  -4.900609  0.290235 -1.123870
      ESP Fit Center  565 is at  -4.809998 -0.121415 -1.123870
      ESP Fit Center  566 is at  -4.633013 -0.503962 -1.123870
      ESP Fit Center  567 is at  -4.377929 -0.839519 -1.123870
      ESP Fit Center  568 is at  -4.056674 -1.112396 -1.123870
      ESP Fit Center  569 is at  -1.283303  1.309778 -1.524667
      ESP Fit Center  570 is at  -1.505384  1.663217 -1.524667
      ESP Fit Center  571 is at  -1.800544  1.958377 -1.524667
      ESP Fit Center  572 is at  -2.153983  2.180458 -1.524667
      ESP Fit Center  573 is at  -2.547978  2.318322 -1.524667
      ESP Fit Center  574 is at  -2.962773  2.365059 -1.524667
      ESP Fit Center  575 is at  -3.377568  2.318322 -1.524667
      ESP Fit Center  576 is at  -3.771563  2.180458 -1.524667
      ESP Fit Center  577 is at  -4.125002  1.958377 -1.524667
      ESP Fit Center  578 is at  -4.420162  1.663217 -1.524667
      ESP Fit Center  579 is at  -4.642243  1.309778 -1.524667
      ESP Fit Center  580 is at  -4.780108  0.915783 -1.524667
      ESP Fit Center  581 is at  -4.826844  0.500988 -1.524667
      ESP Fit Center  582 is at  -4.780108  0.086193 -1.524667
      ESP Fit Center  583 is at  -4.642243 -0.307802 -1.524667
      ESP Fit Center  584 is at  -4.420162 -0.661241 -1.524667
      ESP Fit Center  585 is at  -4.125002 -0.956401 -1.524667
      ESP Fit Center  586 is at  -3.771563 -1.178482 -1.524667
      ESP Fit Center  587 is at  -3.377568 -1.316347 -1.524667
      ESP Fit Center  588 is at  -2.962773 -1.363083 -1.524667
      ESP Fit Center  589 is at  -1.265363  0.500988 -1.898994
      ESP Fit Center  590 is at  -1.318690  0.923116 -1.898994
      ESP Fit Center  591 is at  -1.475321  1.318721 -1.898994
      ESP Fit Center  592 is at  -1.725414  1.662945 -1.898994
      ESP Fit Center  593 is at  -2.053255  1.934158 -1.898994
      ESP Fit Center  594 is at  -2.438244  2.115320 -1.898994
      ESP Fit Center  595 is at  -2.856192  2.195048 -1.898994
      ESP Fit Center  596 is at  -3.280836  2.168332 -1.898994
      ESP Fit Center  597 is at  -3.685495  2.036850 -1.898994
      ESP Fit Center  598 is at  -4.044743  1.808865 -1.898994
      ESP Fit Center  599 is at  -4.336006  1.498700 -1.898994
      ESP Fit Center  600 is at  -4.540985  1.125846 -1.898994
      ESP Fit Center  601 is at  -4.646798  0.713730 -1.898994
      ESP Fit Center  602 is at  -4.646798  0.288246 -1.898994
      ESP Fit Center  603 is at  -4.540985 -0.123870 -1.898994
      ESP Fit Center  604 is at  -4.336006 -0.496725 -1.898994
      ESP Fit Center  605 is at  -4.044743 -0.806889 -1.898994
      ESP Fit Center  606 is at  -3.685495 -1.034875 -1.898994
      ESP Fit Center  607 is at  -3.280836 -1.166356 -1.898994
      ESP Fit Center  608 is at  -2.856192 -1.193073 -1.898994
      ESP Fit Center  609 is at  -2.438244 -1.113345 -1.898994
      ESP Fit Center  610 is at  -1.506209  0.500988 -2.230490
      ESP Fit Center  611 is at  -1.565210  0.911349 -2.230490
      ESP Fit Center  612 is at  -1.737433  1.288466 -2.230490
      ESP Fit Center  613 is at  -2.008926  1.601785 -2.230490
      ESP Fit Center  614 is at  -2.357694  1.825925 -2.230490
      ESP Fit Center  615 is at  -2.755482  1.942726 -2.230490
      ESP Fit Center  616 is at  -3.170064  1.942726 -2.230490
      ESP Fit Center  617 is at  -3.567851  1.825925 -2.230490
      ESP Fit Center  618 is at  -3.916619  1.601785 -2.230490
      ESP Fit Center  619 is at  -4.188112  1.288466 -2.230490
      ESP Fit Center  620 is at  -4.360336  0.911349 -2.230490
      ESP Fit Center  621 is at  -4.419337  0.500988 -2.230490
      ESP Fit Center  622 is at  -4.360336  0.090626 -2.230490
      ESP Fit Center  623 is at  -4.188112 -0.286490 -2.230490
      ESP Fit Center  624 is at  -3.916619 -0.599810 -2.230490
      ESP Fit Center  625 is at  -3.567851 -0.823949 -2.230490
      ESP Fit Center  626 is at  -3.170064 -0.940750 -2.230490
      ESP Fit Center  627 is at  -2.755482 -0.940750 -2.230490
      ESP Fit Center  628 is at  -2.357694 -0.823949 -2.230490
      ESP Fit Center  629 is at  -2.008926 -0.599810 -2.230490
      ESP Fit Center  630 is at  -1.737433 -0.286490 -2.230490
      ESP Fit Center  631 is at  -1.565210  0.090626 -2.230490
      ESP Fit Center  632 is at  -1.810714  0.500988 -2.504667
      ESP Fit Center  633 is at  -1.888510  0.917160 -2.504667
      ESP Fit Center  634 is at  -2.111391  1.277125 -2.504667
      ESP Fit Center  635 is at  -2.449256  1.532269 -2.504667
      ESP Fit Center  636 is at  -2.856474  1.648132 -2.504667
      ESP Fit Center  637 is at  -3.278049  1.609068 -2.504667
      ESP Fit Center  638 is at  -3.657044  1.420351 -2.504667
      ESP Fit Center  639 is at  -3.942273  1.107469 -2.504667
      ESP Fit Center  640 is at  -4.095216  0.712678 -2.504667
      ESP Fit Center  641 is at  -4.095216  0.289297 -2.504667
      ESP Fit Center  642 is at  -3.942273 -0.105493 -2.504667
      ESP Fit Center  643 is at  -3.657044 -0.418375 -2.504667
      ESP Fit Center  644 is at  -3.278049 -0.607092 -2.504667
      ESP Fit Center  645 is at  -2.856474 -0.646157 -2.504667
      ESP Fit Center  646 is at  -2.449256 -0.530293 -2.504667
      ESP Fit Center  647 is at  -2.111391 -0.275149 -2.504667
      ESP Fit Center  648 is at  -1.888510  0.084816 -2.504667
      ESP Fit Center  649 is at  -2.165569  0.500988 -2.709543
      ESP Fit Center  650 is at  -2.272374  0.899590 -2.709543
      ESP Fit Center  651 is at  -2.564171  1.191387 -2.709543
      ESP Fit Center  652 is at  -2.962773  1.298192 -2.709543
      ESP Fit Center  653 is at  -3.361375  1.191387 -2.709543
      ESP Fit Center  654 is at  -3.653172  0.899590 -2.709543
      ESP Fit Center  655 is at  -3.759977  0.500988 -2.709543
      ESP Fit Center  656 is at  -3.653172  0.102386 -2.709543
      ESP Fit Center  657 is at  -3.361375 -0.189411 -2.709543
      ESP Fit Center  658 is at  -2.962773 -0.296216 -2.709543
      ESP Fit Center  659 is at  -2.564171 -0.189411 -2.709543
      ESP Fit Center  660 is at  -2.272374  0.102386 -2.709543
      ESP Fit Center  661 is at  -2.555266  0.500988 -2.836163
      ESP Fit Center  662 is at  -2.759019  0.853899 -2.836163
      ESP Fit Center  663 is at  -3.166526  0.853899 -2.836163
      ESP Fit Center  664 is at  -3.370280  0.500988 -2.836163
      ESP Fit Center  665 is at  -3.166526  0.148076 -2.836163
      ESP Fit Center  666 is at  -2.759019  0.148076 -2.836163
      ESP Fit Center  667 is at  -2.962773  0.500988 -2.878994
      ESP Fit Center  668 is at  -3.058964 -0.458079  2.293544
      ESP Fit Center  669 is at  -3.350761 -0.749876  2.293544
      ESP Fit Center  670 is at  -3.457566 -1.148478  2.293544
      ESP Fit Center  671 is at  -3.350761 -1.547080  2.293544
      ESP Fit Center  672 is at  -2.554063 -0.001334  2.088668
      ESP Fit Center  673 is at  -2.975638 -0.040398  2.088668
      ESP Fit Center  674 is at  -3.354633 -0.229115  2.088668
      ESP Fit Center  675 is at  -3.639862 -0.541997  2.088668
      ESP Fit Center  676 is at  -3.792805 -0.936788  2.088668
      ESP Fit Center  677 is at  -3.792805 -1.360168  2.088668
      ESP Fit Center  678 is at  -3.639862 -1.754959  2.088668
      ESP Fit Center  679 is at  -3.354633 -2.067841  2.088668
      ESP Fit Center  680 is at  -3.265440  0.176459  1.814491
      ESP Fit Center  681 is at  -3.614208 -0.047681  1.814491
      ESP Fit Center  682 is at  -3.885701 -0.361000  1.814491
      ESP Fit Center  683 is at  -4.057925 -0.738117  1.814491
      ESP Fit Center  684 is at  -4.116926 -1.148478  1.814491
      ESP Fit Center  685 is at  -4.057925 -1.558840  1.814491
      ESP Fit Center  686 is at  -3.885701 -1.935956  1.814491
      ESP Fit Center  687 is at  -3.614208 -2.249276  1.814491
      ESP Fit Center  688 is at  -3.265440 -2.473415  1.814491
      ESP Fit Center  689 is at  -3.742332  0.159399  1.482995
      ESP Fit Center  690 is at  -4.033595 -0.150766  1.482995
      ESP Fit Center  691 is at  -4.238574 -0.523620  1.482995
      ESP Fit Center  692 is at  -4.344387 -0.935736  1.482995
      ESP Fit Center  693 is at  -4.344387 -1.361220  1.482995
      ESP Fit Center  694 is at  -4.238574 -1.773336  1.482995
[...]
 4874 Fit       0.002196
 4875 Fit      -0.001975
 4876 Fit      -0.004650
 4877 Fit      -0.005979
 4878 Fit      -0.006095
 4879 Fit      -0.005106
 4880 Fit      -0.003094
 4881 Fit      -0.000122
 4882 Fit       0.003760
 4883 Fit       0.008519
 4884 Fit       0.014126
 4885 Fit      -0.006048
 4886 Fit      -0.009301
 4887 Fit      -0.011301
 4888 Fit      -0.012215
 4889 Fit      -0.012167
 4890 Fit      -0.011251
 4891 Fit      -0.009532
 4892 Fit      -0.007060
 4893 Fit      -0.003872
 4894 Fit       0.000003
 4895 Fit       0.004542
 4896 Fit       0.009728
 4897 Fit       0.015540
 4898 Fit      -0.015225
 4899 Fit      -0.017045
 4900 Fit      -0.017925
 4901 Fit      -0.018001
 4902 Fit      -0.017362
 4903 Fit      -0.016067
 4904 Fit      -0.014157
 4905 Fit      -0.011661
 4906 Fit      -0.008602
 4907 Fit      -0.005002
 4908 Fit      -0.000877
 4909 Fit       0.003756
 4910 Fit       0.008880
 4911 Fit       0.014470
 4912 Fit      -0.023147
 4913 Fit      -0.023726
 4914 Fit      -0.023640
 4915 Fit      -0.022977
 4916 Fit      -0.021786
 4917 Fit      -0.020089
 4918 Fit      -0.017902
 4919 Fit      -0.015236
 4920 Fit      -0.012104
 4921 Fit      -0.008519
 4922 Fit      -0.004498
 4923 Fit      -0.000059
 4924 Fit       0.004777
 4925 Fit       0.009980
 4926 Fit       0.015508
 4927 Fit      -0.030288
 4928 Fit      -0.029582
 4929 Fit      -0.028552
 4930 Fit      -0.027206
 4931 Fit      -0.025530
 4932 Fit      -0.023507
 4933 Fit      -0.021121
 4934 Fit      -0.018367
 4935 Fit      -0.015244
 4936 Fit      -0.011760
 4937 Fit      -0.007930
 4938 Fit      -0.003773
 4939 Fit       0.000684
 4940 Fit       0.005406
 4941 Fit       0.010348
 4942 Fit       0.015464
 4943 Fit      -0.035587
 4944 Fit      -0.033649
 4945 Fit      -0.031698
 4946 Fit      -0.029642
 4947 Fit      -0.027408
 4948 Fit      -0.024941
 4949 Fit      -0.022207
 4950 Fit      -0.019190
 4951 Fit      -0.015886
 4952 Fit      -0.012303
 4953 Fit      -0.008461
 4954 Fit      -0.004388
 4955 Fit      -0.000123
 4956 Fit       0.004286
 4957 Fit       0.008790
 4958 Fit       0.013369
 4959 Fit      -0.040315
 4960 Fit      -0.037342
 4961 Fit      -0.034663
 4962 Fit      -0.032085
 4963 Fit      -0.029473
 4964 Fit      -0.026735
 4965 Fit      -0.023815
 4966 Fit      -0.020683
 4967 Fit      -0.017333
 4968 Fit      -0.013773
 4969 Fit      -0.010028
 4970 Fit      -0.006135
 4971 Fit      -0.002144
 4972 Fit       0.001891
 4973 Fit       0.005932
 4974 Fit      -0.043999
 4975 Fit      -0.040143
 4976 Fit      -0.036856
 4977 Fit      -0.033855
 4978 Fit      -0.030949
 4979 Fit      -0.028014
 4980 Fit      -0.024978
 4981 Fit      -0.021803
 4982 Fit      -0.018479
 4983 Fit      -0.015017
 4984 Fit      -0.011445
 4985 Fit      -0.007807
 4986 Fit      -0.004154
 4987 Fit      -0.000535
 4988 Fit       0.003044
 4989 Fit      -0.046440
 4990 Fit      -0.041746
 4991 Fit      -0.037871
 4992 Fit      -0.034428
 4993 Fit      -0.031169
 4994 Fit      -0.027945
 4995 Fit      -0.024672
 4996 Fit      -0.021312
 4997 Fit      -0.017862
 4998 Fit      -0.014344
 4999 Fit      -0.010798
 5000 Fit      -0.007272
 5001 Fit      -0.003805
 5002 Fit      -0.044419
 5003 Fit      -0.039643
 5004 Fit      -0.035589
 5005 Fit      -0.031887
 5006 Fit      -0.028322
 5007 Fit      -0.024776
 5008 Fit      -0.021201
 5009 Fit      -0.017591
 5010 Fit      -0.013967
 5011 Fit      -0.010360
 5012 Fit      -0.006779
 5013 Fit      -0.040730
 5014 Fit      -0.036074
 5015 Fit      -0.031932
 5016 Fit      -0.028024
 5017 Fit      -0.024202
 5018 Fit      -0.020401
 5019 Fit      -0.016600
 5020 Fit      -0.012785
 5021 Fit      -0.008900
 5022 Fit      -0.043506
 5023 Fit      -0.037690
 5024 Fit      -0.032773
 5025 Fit      -0.028290
 5026 Fit      -0.023999
 5027 Fit      -0.019776
 5028 Fit      -0.015536
 5029 Fit      -0.034983
 5030 Fit      -0.029402
 5031 Fit      -0.024282
 5032 Fit       0.029333
 5033 Fit       0.030567
 5034 Fit       0.027855
 5035 Fit       0.027765
 5036 Fit       0.025858
 5037 Fit       0.027790
 5038 Fit       0.027578
 5039 Fit       0.023870
 5040 Fit       0.022428
 5041 Fit       0.022713
 5042 Fit       0.024052
 5043 Fit       0.022971
 5044 Fit       0.024689
 5045 Fit       0.026028
 5046 Fit       0.027265
 5047 Fit       0.025524
 5048 Fit       0.020402
 5049 Fit       0.017568
 5050 Fit       0.016727
 5051 Fit       0.017379
 5052 Fit       0.018963
 5053 Fit       0.020965
 5054 Fit       0.020581
 5055 Fit       0.023477
 5056 Fit       0.028623
 5057 Fit       0.021002
 5058 Fit       0.015463
 5059 Fit       0.012031
 5060 Fit       0.010514
 5061 Fit       0.010579
 5062 Fit       0.011813
 5063 Fit       0.013784
 5064 Fit       0.016108
 5065 Fit       0.018464
 5066 Fit       0.003595
 5067 Fit       0.005214
 5068 Fit       0.007633
 5069 Fit       0.010469
 5070 Fit       0.013407
 5071 Fit       0.016197
 5072 Fit       0.000716
 5073 Fit       0.004088
 5074 Fit       0.007616
 5075 Fit       0.011062
 5076 Fit      -0.003583
 5077 Fit       0.000634
 5078 Fit       0.004821
 5079 Fit      -0.002449
 5080 Fit       0.002282
 5081 Fit      -0.005667
 5082 Fit      -0.000390
 5083 Fit      -0.003631
 5084 Fit      -0.006759
 5085 Fit      -0.006452
 5086 Fit      -0.009434
 5087 Fit      -0.003341
 5088 Fit      -0.000340
 5089 Fit      -0.005584
 5090 Fit      -0.001962
 5091 Fit       0.002460
 5092 Fit       0.005758
 5093 Fit       0.008071
 5094 Fit       0.009684
 5095 Fit       0.011148
 5096 Fit      -0.007563
 5097 Fit      -0.003160
 5098 Fit       0.001584
 5099 Fit       0.005314
 5100 Fit       0.008283
 5101 Fit       0.010965
 5102 Fit       0.014149
 5103 Fit      -0.009014
 5104 Fit      -0.003896
 5105 Fit       0.001472
 5106 Fit       0.005875
 5107 Fit       0.009772
 5108 Fit       0.013927
 5109 Fit      -0.004145
 5110 Fit       0.001629
 5111 Fit       0.006593
 5112 Fit       0.011229
 5113 Fit       0.015954
 5114 Fit      -0.003894
 5115 Fit       0.002505
 5116 Fit       0.007931
 5117 Fit       0.012067
 5118 Fit       0.013298
 5119 Fit       0.009930
 5120 Fit      -0.003133
 5121 Fit       0.003507
 5122 Fit       0.005549
 5123 Fit       0.011820
 5124 Fit       0.006329
 5125 Fit       0.003520
 5126 Fit       0.003228
 5127 Fit       0.014507
 5128 Fit       0.006987
 5129 Fit       0.001709
 5130 Fit      -0.001589
 5131 Fit      -0.003153
 5132 Fit      -0.003121
 5133 Fit      -0.001522
 5134 Fit       0.012374
 5135 Fit       0.004504
 5136 Fit      -0.001179
 5137 Fit      -0.005072
 5138 Fit      -0.007504
 5139 Fit      -0.008686
 5140 Fit      -0.008715
 5141 Fit      -0.007598
 5142 Fit      -0.005286
 5143 Fit       0.004602
 5144 Fit      -0.002078
 5145 Fit      -0.006823
 5146 Fit      -0.010093
 5147 Fit      -0.012201
 5148 Fit      -0.013328
 5149 Fit      -0.013556
 5150 Fit      -0.012891
 5151 Fit      -0.011284
 5152 Fit      -0.008657
 5153 Fit      -0.004922
 5154 Fit      -0.002693
 5155 Fit      -0.008019
 5156 Fit      -0.011824
 5157 Fit      -0.014493
 5158 Fit      -0.016271
 5159 Fit      -0.017297
 5160 Fit      -0.017632
 5161 Fit      -0.017277
 5162 Fit      -0.016189
 5163 Fit      -0.014297
 5164 Fit      -0.011519
 5165 Fit      -0.007765
 5166 Fit      -0.007397
 5167 Fit      -0.012025
 5168 Fit      -0.015376
 5169 Fit      -0.017781
 5170 Fit      -0.019451
 5171 Fit      -0.020508
 5172 Fit      -0.021007
 5173 Fit      -0.020954
 5174 Fit      -0.020315
 5175 Fit      -0.019031
 5176 Fit      -0.017024
 5177 Fit      -0.014212
 5178 Fit      -0.010509
 5179 Fit      -0.008299
 5180 Fit      -0.013261
 5181 Fit      -0.016874
 5182 Fit      -0.019511
 5183 Fit      -0.021414
 5184 Fit      -0.022732
 5185 Fit      -0.023545
 5186 Fit      -0.023881
 5187 Fit      -0.023725
 5188 Fit      -0.023028
 5189 Fit      -0.021723
 5190 Fit      -0.019727
 5191 Fit      -0.016956
 5192 Fit      -0.013322
 5193 Fit      -0.008738
 5194 Fit      -0.014487
 5195 Fit      -0.018146
 5196 Fit      -0.020870
 5197 Fit      -0.022891
 5198 Fit      -0.024362
 5199 Fit      -0.025377
 5200 Fit      -0.025980
 5201 Fit      -0.026174
 5202 Fit      -0.025929
 5203 Fit      -0.025188
 5204 Fit      -0.023881
 5205 Fit      -0.021927
 5206 Fit      -0.019245
 5207 Fit      -0.015758
 5208 Fit      -0.011393
 5209 Fit      -0.014304
 5210 Fit      -0.018202
 5211 Fit      -0.021178
 5212 Fit      -0.023439
 5213 Fit      -0.025142
 5214 Fit      -0.026397
 5215 Fit      -0.027267
 5216 Fit      -0.027780
 5217 Fit      -0.027927
 5218 Fit      -0.027671
 5219 Fit      -0.026954
 5220 Fit      -0.025702
 5221 Fit      -0.023838
 5222 Fit      -0.021285
 5223 Fit      -0.017975
 5224 Fit      -0.013853
 5225 Fit      -0.011392
 5226 Fit      -0.016797
 5227 Fit      -0.020186
 5228 Fit      -0.022848
 5229 Fit      -0.024912
 5230 Fit      -0.026490
 5231 Fit      -0.027669
 5232 Fit      -0.028501
 5233 Fit      -0.029006
 5234 Fit      -0.029174
 5235 Fit      -0.028965
 5236 Fit      -0.028321
 5237 Fit      -0.027169
 5238 Fit      -0.025432
 5239 Fit      -0.023035
 5240 Fit      -0.019920
 5241 Fit      -0.016044
 5242 Fit      -0.013544
 5243 Fit      -0.018723
 5244 Fit      -0.021677
 5245 Fit      -0.024051
 5246 Fit      -0.025926
 5247 Fit      -0.027382
 5248 Fit      -0.028481
 5249 Fit      -0.029265
 5250 Fit      -0.029750
 5251 Fit      -0.029922
 5252 Fit      -0.029744
 5253 Fit      -0.029159
 5254 Fit      -0.028100
 5255 Fit      -0.026493
 5256 Fit      -0.024271
 5257 Fit      -0.021384
 5258 Fit      -0.017806
 5259 Fit      -0.015270
 5260 Fit      -0.010650
 5261 Fit      -0.016974
 5262 Fit      -0.020370
 5263 Fit      -0.023092
 5264 Fit      -0.025255
 5265 Fit      -0.026948
 5266 Fit      -0.028244
 5267 Fit      -0.029195
 5268 Fit      -0.029830
 5269 Fit      -0.030149
 5270 Fit      -0.030124
 5271 Fit      -0.029704
 5272 Fit      -0.028820
 5273 Fit      -0.027398
 5274 Fit      -0.025367
 5275 Fit      -0.022676
 5276 Fit      -0.019304
 5277 Fit      -0.016558
 5278 Fit      -0.012094
 5279 Fit      -0.019631
 5280 Fit      -0.022690
 5281 Fit      -0.025046
 5282 Fit      -0.026847
 5283 Fit      -0.028192
 5284 Fit      -0.029145
 5285 Fit      -0.029736
 5286 Fit      -0.029960
 5287 Fit      -0.029781
 5288 Fit      -0.029135
 5289 Fit      -0.027943
 5290 Fit      -0.026129
 5291 Fit      -0.023633
 5292 Fit      -0.020434
 5293 Fit      -0.017422
 5294 Fit      -0.013139
 5295 Fit      -0.017583
 5296 Fit      -0.021277
 5297 Fit      -0.024032
 5298 Fit      -0.026076
 5299 Fit      -0.027554
 5300 Fit      -0.028554
 5301 Fit      -0.029116
 5302 Fit      -0.029235
 5303 Fit      -0.028866
 5304 Fit      -0.027938
 5305 Fit      -0.026373
 5306 Fit      -0.024106
 5307 Fit      -0.021111
 5308 Fit      -0.017900
 5309 Fit      -0.013676
 5310 Fit      -0.009016
 5311 Fit      -0.016994
 5312 Fit      -0.020908
 5313 Fit      -0.023774
 5314 Fit      -0.025800
 5315 Fit      -0.027136
 5316 Fit      -0.027862
 5317 Fit      -0.027996
 5318 Fit      -0.027495
 5319 Fit      -0.026284
 5320 Fit      -0.024291
 5321 Fit      -0.021482
 5322 Fit      -0.018039
 5323 Fit      -0.013697
 5324 Fit      -0.008994
 5325 Fit      -0.004452
 5326 Fit       0.000288
 5327 Fit      -0.003069
 5328 Fit      -0.008151
 5329 Fit      -0.013648
 5330 Fit      -0.018410
 5331 Fit      -0.021984
 5332 Fit      -0.024397
 5333 Fit      -0.025787
 5334 Fit      -0.026235
 5335 Fit      -0.025732
 5336 Fit      -0.024209
 5337 Fit      -0.021621
 5338 Fit      -0.017889
 5339 Fit      -0.013437
 5340 Fit      -0.009136
 5341 Fit      -0.006460
 5342 Fit      -0.006768
 5343 Fit      -0.010140
 5344 Fit      -0.015013
 5345 Fit      -0.019452
 5346 Fit      -0.022438
 5347 Fit      -0.023766
 5348 Fit      -0.023427
 5349 Fit      -0.021414
 5350 Fit      -0.017496
 5351 Fit      -0.013289
 5352 Fit      -0.012384
 5353 Fit      -0.016070
 5354 Fit      -0.019935
 5355 Fit      -0.020515
 5356 Fit      -0.016888
 5357 Fit       0.041810
 5358 Fit       0.036419
 5359 Fit       0.040175
 5360 Fit       0.045474
 5361 Fit       0.031757
 5362 Fit       0.034875
 5363 Fit       0.038838
 5364 Fit       0.043435
 5365 Fit       0.048600
 5366 Fit       0.027655
 5367 Fit       0.030777
 5368 Fit       0.034141
 5369 Fit       0.037657
 5370 Fit       0.041478
 5371 Fit       0.045898
 5372 Fit       0.024562
 5373 Fit       0.027954
 5374 Fit       0.031251
 5375 Fit       0.034438
 5376 Fit       0.037635
 5377 Fit       0.041068
 5378 Fit       0.045058
 5379 Fit       0.022635
 5380 Fit       0.026245
 5381 Fit       0.029546
 5382 Fit       0.032586
 5383 Fit       0.035492
 5384 Fit       0.038453
 5385 Fit       0.041730
 5386 Fit       0.021201
 5387 Fit       0.024844
 5388 Fit       0.028061
 5389 Fit       0.030934
 5390 Fit       0.033582
 5391 Fit       0.036162
 5392 Fit       0.038884
 5393 Fit       0.042002
 5394 Fit       0.017590
 5395 Fit       0.021702
 5396 Fit       0.025229
 5397 Fit       0.028270
 5398 Fit       0.030944
 5399 Fit       0.033395
 5400 Fit       0.035805
 5401 Fit       0.038422
 5402 Fit       0.018633
 5403 Fit       0.022476
 5404 Fit       0.025713
 5405 Fit       0.028470
 5406 Fit       0.030878
 5407 Fit       0.033092
 5408 Fit       0.035322
 5409 Fit       0.020721
 5410 Fit       0.024090
 5411 Fit       0.026897
 5412 Fit       0.029278
 5413 Fit       0.031381
 5414 Fit       0.033401
 5415 Fit       0.024268
 5416 Fit       0.026951
 5417 Fit       0.029186
 5418 Fit       0.031147
 5419 Fit       0.033092
 5420 Fit       0.025508
 5421 Fit       0.027895
 5422 Fit       0.029869
 5423 Fit       0.031674
 5424 Fit       0.029065
 5425 Fit       0.030750
 5426 Fit       0.022321
 5427 Fit       0.022740
 5428 Fit       0.024083
 5429 Fit       0.019243
 5430 Fit       0.019478
 5431 Fit       0.019637
 5432 Fit       0.019938
 5433 Fit       0.021131
 5434 Fit       0.019006
 5435 Fit       0.016831
 5436 Fit       0.017105
 5437 Fit       0.017001
 5438 Fit       0.016485
 5439 Fit       0.015639
 5440 Fit       0.015574
 5441 Fit       0.016271
 5442 Fit       0.014878
 5443 Fit       0.015252
 5444 Fit       0.015118
 5445 Fit       0.014375
 5446 Fit       0.012890
 5447 Fit       0.010532
 5448 Fit       0.011501
 5449 Fit       0.012920
 5450 Fit       0.014077
 5451 Fit       0.013235
 5452 Fit       0.013724
 5453 Fit       0.013672
 5454 Fit       0.012976
 5455 Fit       0.011460
 5456 Fit       0.008834
 5457 Fit       0.008912
 5458 Fit       0.010817
 5459 Fit       0.012259
 5460 Fit       0.011792
 5461 Fit       0.012417
 5462 Fit       0.012446
 5463 Fit       0.011777
 5464 Fit       0.010215
 5465 Fit       0.007401
 5466 Fit       0.006459
 5467 Fit       0.008851
 5468 Fit       0.010608
 5469 Fit       0.010472
 5470 Fit       0.011234
 5471 Fit       0.011387
 5472 Fit       0.010847
 5473 Fit       0.009438
 5474 Fit       0.006822
 5475 Fit       0.002373
 5476 Fit       0.000687
 5477 Fit       0.004380
 5478 Fit       0.007122
 5479 Fit       0.009116
 5480 Fit       0.009225
 5481 Fit       0.010137
 5482 Fit       0.010422
 5483 Fit       0.010017
 5484 Fit       0.008767
 5485 Fit       0.006367
 5486 Fit       0.002248
 5487 Fit      -0.001926
 5488 Fit       0.002324
 5489 Fit       0.005433
 5490 Fit       0.007681
 5491 Fit       0.008023
 5492 Fit       0.009124
 5493 Fit       0.009538
 5494 Fit       0.009214
 5495 Fit       0.008002
 5496 Fit       0.005595
 5497 Fit       0.001402
 5498 Fit      -0.000153
 5499 Fit       0.003557
 5500 Fit       0.006205
 5501 Fit       0.006860
 5502 Fit       0.008188
 5503 Fit       0.008755
 5504 Fit       0.008532
 5505 Fit       0.007382
 5506 Fit       0.005015
 5507 Fit      -0.002921
 5508 Fit       0.001560
 5509 Fit       0.004708
 5510 Fit       0.005755
 5511 Fit       0.007327
 5512 Fit       0.008101
 5513 Fit       0.008087
 5514 Fit       0.007211
 5515 Fit       0.005299
 5516 Fit      -0.000337
 5517 Fit       0.003277
 5518 Fit       0.004754
 5519 Fit       0.006681
 5520 Fit       0.007711
 5521 Fit       0.007930
 5522 Fit       0.007382
 5523 Fit      -0.002695
 5524 Fit       0.001745
 5525 Fit       0.003942
 5526 Fit       0.006280
 5527 Fit       0.007689
 5528 Fit       0.008416
 5529 Fit       0.008811
 5530 Fit       0.000379
 5531 Fit       0.006360
 5532 Fit       0.045534
 5533 Fit       0.049869
 5534 Fit       0.049912
 5535 Fit       0.044876
 5536 Fit       0.040653
 5537 Fit       0.041481
 5538 Fit       0.045714
 5539 Fit       0.053730
 5540 Fit       0.055959
 5541 Fit       0.054942
 5542 Fit       0.050253
 5543 Fit       0.043741
 5544 Fit       0.038088
 5545 Fit       0.035121
 5546 Fit       0.035191
 5547 Fit       0.037539
 5548 Fit       0.041172
 5549 Fit       0.045403
 5550 Fit       0.049799
 5551 Fit       0.057163
 5552 Fit       0.042129
 5553 Fit       0.035588
 5554 Fit       0.030984
 5555 Fit       0.028801
 5556 Fit       0.028890
 5557 Fit       0.030688
 5558 Fit       0.033550
 5559 Fit       0.036978
 5560 Fit       0.040688
 5561 Fit       0.044586
 5562 Fit       0.048690
 5563 Fit       0.052974
 5564 Fit       0.060178
 5565 Fit       0.022688
 5566 Fit       0.025121
 5567 Fit       0.028257
 5568 Fit       0.031724
 5569 Fit       0.035305
 5570 Fit       0.038922
 5571 Fit       0.042610
 5572 Fit       0.046493
 5573 Fit       0.050716
 5574 Fit       0.055335
 5575 Fit       0.062739
 5576 Fit       0.021220
 5577 Fit       0.024953
 5578 Fit       0.028715
 5579 Fit       0.032397
 5580 Fit       0.035981
 5581 Fit       0.039535
 5582 Fit       0.043207
 5583 Fit       0.047209
 5584 Fit       0.051764
 5585 Fit       0.056983
 5586 Fit       0.021492
 5587 Fit       0.025420
 5588 Fit       0.029137
 5589 Fit       0.032656
 5590 Fit       0.036052
 5591 Fit       0.039465
 5592 Fit       0.043108
 5593 Fit       0.047262
 5594 Fit       0.052204
 5595 Fit       0.019336
 5596 Fit       0.023468
 5597 Fit       0.027271
 5598 Fit       0.030805
 5599 Fit       0.034183
 5600 Fit       0.037591
 5601 Fit       0.041324
 5602 Fit       0.017034
 5603 Fit       0.021220
 5604 Fit       0.025003
 5605 Fit       0.028469
 5606 Fit       0.031764
 5607 Fit       0.035126
 5608 Fit       0.017547
 5609 Fit       0.021451
 5610 Fit       0.024967
 5611 Fit       0.028266
 5612 Fit       0.019638
 5613 Fit       0.023219
 -----------------------------------------------------------------
 Leave Link  602 at Mon Apr  3 11:29:58 2023, MaxMem=   134217728 cpu:         1.6

 Test job not archived.
 1\1\NSC-N1874\SP\RHF\6-31G(d)\C5H9N1O3\X_GABOA\03-Apr-2023\0\\#HF/6-31
 G* scrf=smd SCF=tight Test Pop=MK iop(6/33=2) iop(6/42=6) # iop(6/50=1
 )\\RESP charges\\0,1\N,0,1.825236,1.751765,0.01869\H,0,1.604259,1.8692
 75,-0.967632\C,0,1.532838,0.371749,0.399227\H,0,1.555235,0.325959,1.49
 6848\C,0,0.206438,-0.197814,-0.095248\H,0,0.196969,-0.179358,-1.1903\H
 ,0,0.127377,-1.242261,0.217395\C,0,-0.984979,0.602093,0.444947\H,0,-0.
 978092,0.581687,1.538873\H,0,-0.943247,1.636595,0.106336\C,0,-2.277757
 ,0.017193,-0.050686\O,0,-2.962773,0.500988,-0.918994\O,0,-2.660362,-1.
 148478,0.502995\C,0,2.697703,-0.488191,-0.031031\O,0,2.594483,-1.60548
 7,-0.478786\H,0,1.20299,2.375364,0.5225\H,0,3.687905,-0.017628,0.10042
 4\H,0,-2.046295,-1.418344,1.199749\\Version=ES64L-G09RevE.01\State=1-A
 \HF=-473.6452386\RMSD=6.703e-09\Dipole=1.1646011,0.9735987,2.1342202\Q
 uadrupole=-13.2678909,3.4466425,9.8212483,4.7721792,-5.3584389,-2.7004
 048\PG=C01 [X(C5H9N1O3)]\\@


 DO NOT LET SELFISH MEN OR GREEDY INTERESTS SKIN YOUR COUNTRY OF ITS
 BEAUTY, ITS RICHES, OR ITS ROMANCE. -- THEODORE ROOSEVELT
 Job cpu time:       0 days  0 hours  0 minutes 35.9 seconds.
 File lengths (MBytes):  RWF=     41 Int=      0 D2E=      0 Chk=      8 Scr=      1
 Normal termination of Gaussian 09 at Mon Apr  3 11:29:58 2023.
