 Entering Gaussian System, Link 0=/software/sse/easybuild/prefix/software/Gaussian/09.E.01-avx-nsc1-bdist/g09/g09.orig
 Input=sub-_opt.wrap
 Output=sub-_opt.log
 Initial command:
 /software/sse/easybuild/prefix/software/Gaussian/09.E.01-avx-nsc1-bdist/g09/l1.exe "/scratch/local/Gau-29658.inp" -scrdir="/scratch/local/"
 Entering Link 1 = /software/sse/easybuild/prefix/software/Gaussian/09.E.01-avx-nsc1-bdist/g09/l1.exe PID=     29659.
  
 Copyright (c) 1988,1990,1992,1993,1995,1998,2003,2009,2015,
            Gaussian, Inc.  All Rights Reserved.
  
 This is part of the Gaussian(R) 09 program.  It is based on
 the Gaussian(R) 03 system (copyright 2003, Gaussian, Inc.),
 the Gaussian(R) 98 system (copyright 1998, Gaussian, Inc.),
 the Gaussian(R) 94 system (copyright 1995, Gaussian, Inc.),
 the Gaussian 92(TM) system (copyright 1992, Gaussian, Inc.),
 the Gaussian 90(TM) system (copyright 1990, Gaussian, Inc.),
 the Gaussian 88(TM) system (copyright 1988, Gaussian, Inc.),
 the Gaussian 86(TM) system (copyright 1986, Carnegie Mellon
 University), and the Gaussian 82(TM) system (copyright 1983,
 Carnegie Mellon University). Gaussian is a federally registered
 trademark of Gaussian, Inc.
  
 This software contains proprietary and confidential information,
 including trade secrets, belonging to Gaussian, Inc.
  
 This software is provided under written license and may be
 used, copied, transmitted, or stored only in accord with that
 written license.
  
 The following legend is applicable only to US Government
 contracts under FAR:
  
                    RESTRICTED RIGHTS LEGEND
  
 Use, reproduction and disclosure by the US Government is
 subject to restrictions as set forth in subparagraphs (a)
 and (c) of the Commercial Computer Software - Restricted
 Rights clause in FAR 52.227-19.
  
 Gaussian, Inc.
 340 Quinnipiac St., Bldg. 40, Wallingford CT 06492
  
  
 ---------------------------------------------------------------
 Warning -- This program may not be used in any manner that
 competes with the business of Gaussian, Inc. or will provide
 assistance to any competitor of Gaussian, Inc.  The licensee
 of this program is prohibited from giving any competitor of
 Gaussian, Inc. access to this program.  By using this program,
 the user acknowledges that Gaussian, Inc. is engaged in the
 business of creating and licensing software in the field of
 computational chemistry and represents and warrants to the
 licensee that it is not a competitor of Gaussian, Inc. and that
 it will not use this program in any manner prohibited above.
 ---------------------------------------------------------------
  

 Cite this work as:
 Gaussian 09, Revision E.01,
 M. J. Frisch, G. W. Trucks, H. B. Schlegel, G. E. Scuseria, 
 M. A. Robb, J. R. Cheeseman, G. Scalmani, V. Barone, B. Mennucci, 
 G. A. Petersson, H. Nakatsuji, M. Caricato, X. Li, H. P. Hratchian, 
 A. F. Izmaylov, J. Bloino, G. Zheng, J. L. Sonnenberg, M. Hada, 
 M. Ehara, K. Toyota, R. Fukuda, J. Hasegawa, M. Ishida, T. Nakajima, 
 Y. Honda, O. Kitao, H. Nakai, T. Vreven, J. A. Montgomery, Jr., 
 J. E. Peralta, F. Ogliaro, M. Bearpark, J. J. Heyd, E. Brothers, 
 K. N. Kudin, V. N. Staroverov, T. Keith, R. Kobayashi, J. Normand, 
 K. Raghavachari, A. Rendell, J. C. Burant, S. S. Iyengar, J. Tomasi, 
 M. Cossi, N. Rega, J. M. Millam, M. Klene, J. E. Knox, J. B. Cross, 
 V. Bakken, C. Adamo, J. Jaramillo, R. Gomperts, R. E. Stratmann, 
 O. Yazyev, A. J. Austin, R. Cammi, C. Pomelli, J. W. Ochterski, 
 R. L. Martin, K. Morokuma, V. G. Zakrzewski, G. A. Voth, 
 P. Salvador, J. J. Dannenberg, S. Dapprich, A. D. Daniels, 
 O. Farkas, J. B. Foresman, J. V. Ortiz, J. Cioslowski, 
 and D. J. Fox, Gaussian, Inc., Wallingford CT, 2013.
 
 ******************************************
 Gaussian 09:  ES64L-G09RevE.01 30-Nov-2015
                28-Feb-2023 
 ******************************************
 %nproc=16
 Will use up to   16 processors via shared memory.
 %chk=sub-_opt
 ----------------------------
 #M062X/6-311G** scrf=smd opt
 ----------------------------
 1/14=-1,18=20,19=15,26=3,38=1/1,3;
 2/9=110,12=2,17=6,18=5,40=1/2;
 3/5=4,6=6,7=101,11=2,16=1,25=1,30=1,70=32201,71=1,72=1,74=-55/1,2,3;
 4//1;
 5/5=2,38=5/2;
 6/7=2,8=2,9=2,10=2,28=1/1;
 7//1,2,3,16;
 1/14=-1,18=20,19=15,26=3/3(2);
 2/9=110/2;
 99//99;
 2/9=110/2;
 3/5=4,6=6,7=101,11=2,16=1,25=1,30=1,70=32205,71=1,74=-55/1,2,3;
 4/5=5,16=3,69=1/1;
 5/5=2,38=5/2;
 7//1,2,3,16;
 1/14=-1,18=20,19=15,26=3/3(-5);
 2/9=110/2;
 6/7=2,8=2,9=2,10=2,19=2,28=1/1;
 99/9=1/99;
 ---------------------
 remark line goes here
 ---------------------
 Symbolic Z-matrix:
 Charge = -3 Multiplicity = 1
 P                     22.394    42.16     16.893 
 O                     21.667    41.018    16.124 
 O                     23.015    41.628    18.241 
 O                     21.573    43.407    17.067 
 O                     23.753    42.57     15.929 
 C                     23.311    42.835    14.513 
 H                     22.789    43.65     14.447 
 H                     22.799    42.094    14.152 
 C                     24.681    42.976    13.815 
 O                     25.335    43.954    14.051 
 C                     25.185    41.871    13.011 
 O                     26.031    42.093    11.946 
 H                     25.656    42.569    11.394 
 H                     25.641    41.264    13.615 
 

 GradGradGradGradGradGradGradGradGradGradGradGradGradGradGradGradGradGrad
 Berny optimization.
 Initialization pass.
                           ----------------------------
                           !    Initial Parameters    !
                           ! (Angstroms and Degrees)  !
 --------------------------                            --------------------------
 ! Name  Definition              Value          Derivative Info.                !
 --------------------------------------------------------------------------------
 ! R1    R(1,2)                  1.5569         estimate D2E/DX2                !
 ! R2    R(1,3)                  1.5766         estimate D2E/DX2                !
 ! R3    R(1,4)                  1.5031         estimate D2E/DX2                !
 ! R4    R(1,5)                  1.7159         estimate D2E/DX2                !
 ! R5    R(5,6)                  1.5069         estimate D2E/DX2                !
 ! R6    R(6,7)                  0.9701         estimate D2E/DX2                !
 ! R7    R(6,8)                  0.9703         estimate D2E/DX2                !
 ! R8    R(6,9)                  1.544          estimate D2E/DX2                !
 ! R9    R(9,10)                 1.2            estimate D2E/DX2                !
 ! R10   R(9,11)                 1.4565         estimate D2E/DX2                !
 ! R11   R(11,12)                1.3781         estimate D2E/DX2                !
 ! R12   R(11,14)                0.9702         estimate D2E/DX2                !
 ! R13   R(12,13)                0.8197         estimate D2E/DX2                !
 ! A1    A(2,1,3)              111.0211         estimate D2E/DX2                !
 ! A2    A(2,1,4)              114.2455         estimate D2E/DX2                !
 ! A3    A(2,1,5)              105.5214         estimate D2E/DX2                !
 ! A4    A(3,1,4)              113.3345         estimate D2E/DX2                !
 ! A5    A(3,1,5)              104.4189         estimate D2E/DX2                !
 ! A6    A(4,1,5)              107.4217         estimate D2E/DX2                !
 ! A7    A(1,5,6)              109.7329         estimate D2E/DX2                !
 ! A8    A(5,6,7)              111.6858         estimate D2E/DX2                !
 ! A9    A(5,6,8)              111.7205         estimate D2E/DX2                !
 ! A10   A(5,6,9)              100.4048         estimate D2E/DX2                !
 ! A11   A(7,6,8)              109.4103         estimate D2E/DX2                !
 ! A12   A(7,6,9)              111.714          estimate D2E/DX2                !
 ! A13   A(8,6,9)              111.6994         estimate D2E/DX2                !
 ! A14   A(6,9,10)             117.9767         estimate D2E/DX2                !
 ! A15   A(6,9,11)             119.1627         estimate D2E/DX2                !
 ! A16   A(10,9,11)            122.5679         estimate D2E/DX2                !
 ! A17   A(9,11,12)            121.1171         estimate D2E/DX2                !
 ! A18   A(9,11,14)            107.0766         estimate D2E/DX2                !
 ! A19   A(12,11,14)           107.06           estimate D2E/DX2                !
 ! A20   A(11,12,13)           109.458          estimate D2E/DX2                !
 ! D1    D(2,1,5,6)             51.6719         estimate D2E/DX2                !
 ! D2    D(3,1,5,6)            168.7884         estimate D2E/DX2                !
 ! D3    D(4,1,5,6)            -70.5927         estimate D2E/DX2                !
 ! D4    D(1,5,6,7)             69.1035         estimate D2E/DX2                !
 ! D5    D(1,5,6,8)            -53.8112         estimate D2E/DX2                !
 ! D6    D(1,5,6,9)           -172.3527         estimate D2E/DX2                !
 ! D7    D(5,6,9,10)           -70.7712         estimate D2E/DX2                !
 ! D8    D(5,6,9,11)           103.177          estimate D2E/DX2                !
 ! D9    D(7,6,9,10)            47.7519         estimate D2E/DX2                !
 ! D10   D(7,6,9,11)          -138.2999         estimate D2E/DX2                !
 ! D11   D(8,6,9,10)           170.6719         estimate D2E/DX2                !
 ! D12   D(8,6,9,11)           -15.38           estimate D2E/DX2                !
 ! D13   D(6,9,11,12)          151.4893         estimate D2E/DX2                !
 ! D14   D(6,9,11,14)          -85.5598         estimate D2E/DX2                !
 ! D15   D(10,9,11,12)         -34.8538         estimate D2E/DX2                !
 ! D16   D(10,9,11,14)          88.0972         estimate D2E/DX2                !
 ! D17   D(9,11,12,13)         -60.3541         estimate D2E/DX2                !
 ! D18   D(14,11,12,13)        176.687          estimate D2E/DX2                !
 --------------------------------------------------------------------------------
 Trust Radius=3.00D-01 FncErr=1.00D-07 GrdErr=1.00D-06
 Number of steps in this run=     61 maximum allowed number of steps=    100.
 GradGradGradGradGradGradGradGradGradGradGradGradGradGradGradGradGradGrad

                          Input orientation:                          
 ---------------------------------------------------------------------
 Center     Atomic      Atomic             Coordinates (Angstroms)
 Number     Number       Type             X           Y           Z
 ---------------------------------------------------------------------
      1         15           0       22.394000   42.160000   16.893000
      2          8           0       21.667000   41.018000   16.124000
      3          8           0       23.015000   41.628000   18.241000
      4          8           0       21.573000   43.407000   17.067000
      5          8           0       23.753000   42.570000   15.929000
      6          6           0       23.311000   42.835000   14.513000
      7          1           0       22.789000   43.650000   14.447000
      8          1           0       22.799000   42.094000   14.152000
      9          6           0       24.681000   42.976000   13.815000
     10          8           0       25.335000   43.954000   14.051000
     11          6           0       25.185000   41.871000   13.011000
     12          8           0       26.031000   42.093000   11.946000
     13          1           0       25.656000   42.569000   11.394000
     14          1           0       25.641000   41.264000   13.615000
 ---------------------------------------------------------------------
                    Distance matrix (angstroms):
                    1          2          3          4          5
     1  P    0.000000
     2  O    1.556937   0.000000
     3  O    1.576632   2.582807   0.000000
     4  O    1.503105   2.570098   2.573418   0.000000
     5  O    1.715890   2.607321   2.603335   2.597694   0.000000
     6  C    2.638354   2.932498   3.929688   3.141774   1.506866
     7  H    2.891201   3.316419   4.305113   2.898638   2.071719
     8  H    2.771545   2.515548   4.121132   3.424072   2.072298
     9  C    3.920499   4.271936   4.917534   4.518952   2.344145
    10  O    4.465969   5.135333   5.324357   4.852639   2.818699
    11  C    4.789898   4.774380   5.667526   5.644198   3.324748
    12  O    6.140445   6.136433   6.995678   6.915562   4.613144
    13  H    6.406787   6.378920   7.398768   7.039607   4.918093
    14  H    4.700118   4.706195   5.331815   5.749555   3.259567
                    6          7          8          9         10
     6  C    0.000000
     7  H    0.970085   0.000000
     8  H    0.970333   1.583749   0.000000
     9  C    1.544016   2.105556   2.105568   0.000000
    10  O    2.358428   2.594484   3.146601   1.199957   0.000000
    11  C    2.587890   3.311760   2.654168   1.456522   2.333021
    12  O    3.812932   4.380618   3.913088   2.468876   2.894609
    13  H    3.911258   4.325397   3.999330   2.641499   3.013456
    14  H    2.950143   3.810397   3.009025   1.972953   2.742231
                   11         12         13         14
    11  C    0.000000
    12  O    1.378124   0.000000
    13  H    1.823111   0.819698   0.000000
    14  H    0.970155   1.903918   2.576061   0.000000
 Stoichiometry    C3H4O6P(3-)
 Framework group  C1[X(C3H4O6P)]
 Deg. of freedom    36
 Full point group                 C1      NOp   1
 Largest Abelian subgroup         C1      NOp   1
 Largest concise Abelian subgroup C1      NOp   1
                         Standard orientation:                         
 ---------------------------------------------------------------------
 Center     Atomic      Atomic             Coordinates (Angstroms)
 Number     Number       Type             X           Y           Z
 ---------------------------------------------------------------------
      1         15           0       -1.977085   -0.088422    0.032754
      2          8           0       -1.893019   -1.457671   -0.703550
      3          8           0       -2.724552   -0.233626    1.413325
      4          8           0       -2.503594    1.036405   -0.813933
      5          8           0       -0.362063    0.302899    0.460363
      6          6           0        0.524570    0.201329   -0.753808
      7          1           0        0.332471    0.901196   -1.397508
      8          1           0        0.445028   -0.664211   -1.185153
      9          6           0        1.911847    0.389286   -0.102563
     10          8           0        2.195544    1.478523    0.313339
     11          6           0        2.762871   -0.774696    0.103257
     12          8           0        4.136166   -0.659935    0.113977
     13          1           0        4.391425   -0.368037   -0.608203
     14          1           0        2.503752   -1.170896    0.950065
 ---------------------------------------------------------------------
 Rotational constants (GHZ):      2.8828752      0.5147153      0.4942541
 Standard basis: 6-311G(d,p) (5D, 7F)
 There are   222 symmetry adapted cartesian basis functions of A   symmetry.
 There are   212 symmetry adapted basis functions of A   symmetry.
   212 basis functions,   366 primitive gaussians,   222 cartesian basis functions
    44 alpha electrons       44 beta electrons
       nuclear repulsion energy       634.9352067351 Hartrees.
 NAtoms=   14 NActive=   14 NUniq=   14 SFac= 1.00D+00 NAtFMM=   60 NAOKFM=F Big=F
 Integral buffers will be    131072 words long.
 Raffenetti 2 integral format.
 Two-electron integral symmetry is turned on.
 ------------------------------------------------------------------------------
 Polarizable Continuum Model (PCM)
 =================================
 Model                : PCM (using non-symmetric T matrix).
 Atomic radii         : SMD-Coulomb.
 Polarization charges : Total charges.
 Charge compensation  : None.
 Solution method      : On-the-fly selection.
 Cavity type          : VdW (van der Waals Surface) (Alpha=1.000).
 Cavity algorithm     : GePol (No added spheres)
                        Default sphere list used, NSphG=   14.
                        Lebedev-Laikov grids with approx.  5.0 points / Ang**2.
                        Smoothing algorithm: York/Karplus (Gamma=1.0000).
                        Polarization charges: spherical gaussians, with
                                              point-specific exponents (IZeta= 3).
                        Self-potential: point-specific (ISelfS= 7).
                        Self-field    : sphere-specific E.n sum rule (ISelfD= 2).
 1st derivatives      : Analytical E(r).r(x)/FMM algorithm (CHGder, D1EAlg=3).
                        Cavity 1st derivative terms included.
 Solvent              : Water, Eps=  78.355300 Eps(inf)=   1.777849
 ------------------------------------------------------------------------------
 Spheres list:
 ISph  on   Nord     Re0    Alpha      Xe            Ye            Ze
    1   P      1    2.1200  1.000     -1.977085     -0.088422      0.032754
    2   O      2    1.5200  1.000     -1.893019     -1.457671     -0.703550
    3   O      3    1.5200  1.000     -2.724552     -0.233626      1.413325
    4   O      4    1.5200  1.000     -2.503594      1.036405     -0.813933
    5   O      5    1.5200  1.000     -0.362063      0.302899      0.460363
    6   C      6    1.8500  1.000      0.524570      0.201329     -0.753808
    7   H      7    1.2000  1.000      0.332471      0.901196     -1.397508
    8   H      8    1.2000  1.000      0.445028     -0.664211     -1.185153
    9   C      9    1.8500  1.000      1.911847      0.389286     -0.102563
   10   O     10    1.5200  1.000      2.195544      1.478523      0.313339
   11   C     11    1.8500  1.000      2.762871     -0.774696      0.103257
   12   O     12    1.5200  1.000      4.136166     -0.659935      0.113977
   13   H     13    1.2000  1.000      4.391425     -0.368037     -0.608203
   14   H     14    1.2000  1.000      2.503752     -1.170896      0.950065
 ------------------------------------------------------------------------------
 ------------------------------------------------------------------------------
 Atomic radii for non-electrostatic terms: SMD-CDS.
 ------------------------------------------------------------------------------
 Nuclear repulsion after PCM non-electrostatic terms =      634.9479570577 Hartrees.
 One-electron integrals computed using PRISM.
 NBasis=   212 RedAO= T EigKep=  1.98D-03  NBF=   212
 NBsUse=   212 1.00D-06 EigRej= -1.00D+00 NBFU=   212
 ExpMin= 6.85D-02 ExpMax= 7.75D+04 ExpMxC= 2.65D+03 IAcc=2 IRadAn=         4 AccDes= 0.00D+00
 Harris functional with IExCor= 1009 and IRadAn=       4 diagonalized for initial guess.
 HarFok:  IExCor= 1009 AccDes= 0.00D+00 IRadAn=         4 IDoV= 1 UseB2=F ITyADJ=14
 ICtDFT=  3500011 ScaDFX=  1.000000  1.000000  1.000000  1.000000
 FoFCou: FMM=F IPFlag=           0 FMFlag=      100000 FMFlg1=           0
         NFxFlg=           0 DoJE=T BraDBF=F KetDBF=T FulRan=T
         wScrn=  0.000000 ICntrl=     500 IOpCl=  0 I1Cent=   200000004 NGrid=           0
         NMat0=    1 NMatS0=      1 NMatT0=    0 NMatD0=    1 NMtDS0=    0 NMtDT0=    0
 Petite list used in FoFCou.
 Requested convergence on RMS density matrix=1.00D-08 within 128 cycles.
 Requested convergence on MAX density matrix=1.00D-06.
 Requested convergence on             energy=1.00D-06.
 No special actions if energy rises.
 Inv3:  Mode=1 IEnd=     4071675.
 Iteration    1 A*A^-1 deviation from unit magnitude is 3.33D-15 for    477.
 Iteration    1 A*A^-1 deviation from orthogonality  is 2.52D-15 for    675     79.
 Iteration    1 A^-1*A deviation from unit magnitude is 3.55D-15 for   1149.
 Iteration    1 A^-1*A deviation from orthogonality  is 2.03D-10 for    946    707.
 Iteration    2 A*A^-1 deviation from unit magnitude is 2.00D-15 for    216.
 Iteration    2 A*A^-1 deviation from orthogonality  is 2.44D-15 for    900     90.
 Iteration    2 A^-1*A deviation from unit magnitude is 9.99D-16 for    209.
 Iteration    2 A^-1*A deviation from orthogonality  is 4.13D-16 for   1147   1079.
 Error on total polarization charges =  0.06429
 SCF Done:  E(RM062X) =  -909.716103987     A.U. after   15 cycles
            NFock= 15  Conv=0.73D-08     -V/T= 2.0009
 SMD-CDS (non-electrostatic) energy       (kcal/mol) =       8.00
 (included in total energy above)

 **********************************************************************

            Population analysis using the SCF density.

 **********************************************************************

 Orbital symmetries:
       Occupied  (A) (A) (A) (A) (A) (A) (A) (A) (A) (A) (A) (A)
                 (A) (A) (A) (A) (A) (A) (A) (A) (A) (A) (A) (A)
                 (A) (A) (A) (A) (A) (A) (A) (A) (A) (A) (A) (A)
                 (A) (A) (A) (A) (A) (A) (A) (A)
       Virtual   (A) (A) (A) (A) (A) (A) (A) (A) (A) (A) (A) (A)
                 (A) (A) (A) (A) (A) (A) (A) (A) (A) (A) (A) (A)
                 (A) (A) (A) (A) (A) (A) (A) (A) (A) (A) (A) (A)
                 (A) (A) (A) (A) (A) (A) (A) (A) (A) (A) (A) (A)
                 (A) (A) (A) (A) (A) (A) (A) (A) (A) (A) (A) (A)
                 (A) (A) (A) (A) (A) (A) (A) (A) (A) (A) (A) (A)
                 (A) (A) (A) (A) (A) (A) (A) (A) (A) (A) (A) (A)
                 (A) (A) (A) (A) (A) (A) (A) (A) (A) (A) (A) (A)
                 (A) (A) (A) (A) (A) (A) (A) (A) (A) (A) (A) (A)
                 (A) (A) (A) (A) (A) (A) (A) (A) (A) (A) (A) (A)
                 (A) (A) (A) (A) (A) (A) (A) (A) (A) (A) (A) (A)
                 (A) (A) (A) (A) (A) (A) (A) (A) (A) (A) (A) (A)
                 (A) (A) (A) (A) (A) (A) (A) (A) (A) (A) (A) (A)
                 (A) (A) (A) (A) (A) (A) (A) (A) (A) (A) (A) (A)
 The electronic state is 1-A.
 Alpha  occ. eigenvalues --  -78.07934 -19.60005 -19.56681 -19.55735 -19.52626
 Alpha  occ. eigenvalues --  -19.51850 -19.51830 -10.57089 -10.53726 -10.47251
 Alpha  occ. eigenvalues --   -6.88707  -5.00639  -5.00461  -5.00446  -1.15544
 Alpha  occ. eigenvalues --   -1.13473  -1.11533  -1.05259  -1.00131  -0.98502
 Alpha  occ. eigenvalues --   -0.81009  -0.75216  -0.62502  -0.59287  -0.54872
 Alpha  occ. eigenvalues --   -0.51901  -0.50373  -0.49516  -0.48576  -0.45337
 Alpha  occ. eigenvalues --   -0.44700  -0.43945  -0.41842  -0.41260  -0.38320
 Alpha  occ. eigenvalues --   -0.36131  -0.35283  -0.35048  -0.34528  -0.30947
 Alpha  occ. eigenvalues --   -0.30733  -0.28301  -0.28008  -0.16701
 Alpha virt. eigenvalues --    0.06004   0.12424   0.14123   0.14891   0.16766
 Alpha virt. eigenvalues --    0.17004   0.19295   0.21022   0.21651   0.25909
 Alpha virt. eigenvalues --    0.28177   0.30867   0.32293   0.35172   0.36418
 Alpha virt. eigenvalues --    0.38255   0.38501   0.47626   0.49516   0.50082
 Alpha virt. eigenvalues --    0.51815   0.52984   0.56250   0.58121   0.60639
 Alpha virt. eigenvalues --    0.61666   0.63932   0.69374   0.69595   0.72229
 Alpha virt. eigenvalues --    0.73308   0.75881   0.77479   0.78313   0.78960
 Alpha virt. eigenvalues --    0.81042   0.83827   0.83845   0.86034   0.89581
 Alpha virt. eigenvalues --    0.90682   0.92731   0.96087   0.97280   0.98583
 Alpha virt. eigenvalues --    1.00819   1.01881   1.02556   1.04269   1.05511
 Alpha virt. eigenvalues --    1.06327   1.07910   1.11699   1.12679   1.15755
 Alpha virt. eigenvalues --    1.21524   1.25773   1.27671   1.31052   1.33476
 Alpha virt. eigenvalues --    1.36245   1.38870   1.40277   1.45646   1.52114
 Alpha virt. eigenvalues --    1.54397   1.55734   1.58496   1.59135   1.64863
 Alpha virt. eigenvalues --    1.66324   1.68282   1.70630   1.73141   1.74205
 Alpha virt. eigenvalues --    1.76681   1.77351   1.78917   1.80094   1.84955
 Alpha virt. eigenvalues --    1.88866   1.96694   1.99514   2.06929   2.11903
 Alpha virt. eigenvalues --    2.18451   2.21599   2.28264   2.33925   2.38449
 Alpha virt. eigenvalues --    2.45869   2.53006   2.63227   2.64315   2.75543
 Alpha virt. eigenvalues --    2.83516   2.84308   2.87928   2.90113   2.92168
 Alpha virt. eigenvalues --    2.93497   2.95053   2.96393   2.97045   2.97992
 Alpha virt. eigenvalues --    2.98166   2.98432   3.00630   3.02275   3.02790
 Alpha virt. eigenvalues --    3.05461   3.10944   3.13750   3.16250   3.16694
 Alpha virt. eigenvalues --    3.19787   3.22805   3.24726   3.25406   3.27034
 Alpha virt. eigenvalues --    3.30630   3.38020   3.40661   3.45408   3.49041
 Alpha virt. eigenvalues --    3.56629   3.58018   3.61873   3.64720   3.73588
 Alpha virt. eigenvalues --    3.92557   4.01684   4.07434   4.10606   4.15641
 Alpha virt. eigenvalues --    4.32005   4.97581   4.98037   5.01291   5.02394
 Alpha virt. eigenvalues --    5.03316   5.03400   5.05142   5.05768   5.07373
 Alpha virt. eigenvalues --    5.10122   5.21350   5.23099   5.28348   5.32328
 Alpha virt. eigenvalues --    5.45435   5.50422   5.75293   6.13239   7.20781
 Alpha virt. eigenvalues --   14.08900  14.20291  14.23094  23.93581  24.07130
 Alpha virt. eigenvalues --   24.14449  49.96512  49.97083  49.99101  50.09112
 Alpha virt. eigenvalues --   50.14590  50.15819 163.39108
          Condensed to atoms (all electrons):
               1          2          3          4          5          6
     1  P   12.096766   0.489548   0.513001   0.526404   0.235758  -0.039983
     2  O    0.489548   8.554038  -0.045675  -0.043625  -0.036555  -0.003070
     3  O    0.513001  -0.045675   8.549676  -0.043786  -0.035094  -0.000093
     4  O    0.526404  -0.043625  -0.043786   8.480066  -0.037278   0.000044
     5  O    0.235758  -0.036555  -0.035094  -0.037278   8.458446   0.203468
     6  C   -0.039983  -0.003070  -0.000093   0.000044   0.203468   5.095371
     7  H   -0.010379  -0.003450  -0.000468   0.009631  -0.029446   0.381121
     8  H   -0.012508   0.023059  -0.000212  -0.002351  -0.023629   0.382419
     9  C    0.002079   0.000544  -0.000106  -0.000281  -0.061139   0.226836
    10  O   -0.000106  -0.000003  -0.000000   0.000001   0.000573  -0.092063
    11  C   -0.000609  -0.000028   0.000002  -0.000009   0.001953  -0.120516
    12  O    0.000007  -0.000000  -0.000000   0.000000  -0.000000   0.004433
    13  H    0.000012  -0.000000   0.000000   0.000000   0.000050   0.001726
    14  H   -0.000180  -0.000048  -0.000015   0.000003   0.003848   0.010624
               7          8          9         10         11         12
     1  P   -0.010379  -0.012508   0.002079  -0.000106  -0.000609   0.000007
     2  O   -0.003450   0.023059   0.000544  -0.000003  -0.000028  -0.000000
     3  O   -0.000468  -0.000212  -0.000106  -0.000000   0.000002  -0.000000
     4  O    0.009631  -0.002351  -0.000281   0.000001  -0.000009   0.000000
     5  O   -0.029446  -0.023629  -0.061139   0.000573   0.001953  -0.000000
     6  C    0.381121   0.382419   0.226836  -0.092063  -0.120516   0.004433
     7  H    0.545520  -0.047950  -0.010256   0.008595   0.006887  -0.000178
     8  H   -0.047950   0.592647  -0.064854   0.008295   0.043511  -0.001923
     9  C   -0.010256  -0.064854   4.934330   0.558522   0.418902  -0.037517
    10  O    0.008595   0.008295   0.558522   8.181959  -0.150398   0.002426
    11  C    0.006887   0.043511   0.418902  -0.150398   5.654817   0.159174
    12  O   -0.000178  -0.001923  -0.037517   0.002426   0.159174   8.050734
    13  H   -0.000193   0.000645  -0.000726   0.005290  -0.051707   0.360529
    14  H   -0.000594   0.004275  -0.086181   0.011071   0.437996  -0.043337
              13         14
     1  P    0.000012  -0.000180
     2  O   -0.000000  -0.000048
     3  O    0.000000  -0.000015
     4  O    0.000000   0.000003
     5  O    0.000050   0.003848
     6  C    0.001726   0.010624
     7  H   -0.000193  -0.000594
     8  H    0.000645   0.004275
     9  C   -0.000726  -0.086181
    10  O    0.005290   0.011071
    11  C   -0.051707   0.437996
    12  O    0.360529  -0.043337
    13  H    0.407011   0.012097
    14  H    0.012097   0.564940
 Mulliken charges:
               1
     1  P    1.200189
     2  O   -0.934735
     3  O   -0.937230
     4  O   -0.888819
     5  O   -0.680956
     6  C   -0.050319
     7  H    0.151160
     8  H    0.098577
     9  C    0.119847
    10  O   -0.534160
    11  C   -0.399972
    12  O   -0.494348
    13  H    0.265265
    14  H    0.085502
 Sum of Mulliken charges =  -3.00000
 Mulliken charges with hydrogens summed into heavy atoms:
               1
     1  P    1.200189
     2  O   -0.934735
     3  O   -0.937230
     4  O   -0.888819
     5  O   -0.680956
     6  C    0.199417
     9  C    0.119847
    10  O   -0.534160
    11  C   -0.314470
    12  O   -0.229082
 Electronic spatial extent (au):  <R**2>=           2253.7412
 Charge=             -3.0000 electrons
 Dipole moment (field-independent basis, Debye):
    X=              9.6357    Y=              2.2229    Z=             -3.5352  Tot=             10.5017
 Quadrupole moment (field-independent basis, Debye-Ang):
   XX=           -164.2251   YY=            -95.5403   ZZ=            -82.1721
   XY=              0.6129   XZ=             -4.0905   YZ=             -3.2087
 Traceless Quadrupole moment (field-independent basis, Debye-Ang):
   XX=            -50.2460   YY=             18.4389   ZZ=             31.8071
   XY=              0.6129   XZ=             -4.0905   YZ=             -3.2087
 Octapole moment (field-independent basis, Debye-Ang**2):
  XXX=             33.2311  YYY=             12.4908  ZZZ=             -9.4944  XYY=              1.0165
  XXY=             22.7832  XXZ=            -46.1864  XZZ=             40.7834  YZZ=              4.8347
  YYZ=              9.8091  XYZ=            -10.4656
 Hexadecapole moment (field-independent basis, Debye-Ang**3):
 XXXX=          -3074.0334 YYYY=           -402.3932 ZZZZ=           -266.9609 XXXY=            112.3624
 XXXZ=            -86.1145 YYYX=             -9.8626 YYYZ=            -13.0639 ZZZX=             27.8095
 ZZZY=             -0.3117 XXYY=           -589.8091 XXZZ=           -506.9371 YYZZ=           -107.2885
 XXYZ=              9.5787 YYXZ=            -21.6025 ZZXY=             -2.5949
 N-N= 6.349479570577D+02 E-N=-3.469043727623D+03  KE= 9.089025712507D+02
 D1PCM: PCM CHGder 1st derivatives, ID1Alg=3 FixD1E=F DoIter=F DoCFld=F I1PDM=0.
 Calling FoFJK, ICntrl=      2127 FMM=F ISym2X=0 I1Cent= 0 IOpClX= 0 NMat=1 NMatS=1 NMatT=0.
 ***** Axes restored to original set *****
 -------------------------------------------------------------------
 Center     Atomic                   Forces (Hartrees/Bohr)
 Number     Number              X              Y              Z
 -------------------------------------------------------------------
      1       15           0.021970670   -0.050471554    0.018938257
      2        8           0.010541311    0.018527243    0.007900933
      3        8          -0.007269407    0.016652792   -0.034601177
      4        8          -0.008089168    0.018753028   -0.002648769
      5        8          -0.041334616   -0.001248531   -0.009241742
      6        6           0.147864683   -0.022023664    0.063898888
      7        1          -0.055823393    0.100321784   -0.002330827
      8        1          -0.054158819   -0.089692323   -0.034696319
      9        6          -0.013232393   -0.059192525   -0.013804423
     10        8           0.026502898    0.083958175    0.002611256
     11        6          -0.109901079    0.042497189   -0.035394884
     12        8           0.156523864   -0.107890257    0.129920689
     13        1          -0.111147648    0.136946908   -0.161020071
     14        1           0.037553097   -0.087138264    0.070468188
 -------------------------------------------------------------------
 Cartesian Forces:  Max     0.161020071 RMS     0.070751311

 GradGradGradGradGradGradGradGradGradGradGradGradGradGradGradGradGradGrad
 Berny optimization.
 FormGI is forming the generalized inverse of G from B-inverse, IUseBI=4.
 Internal  Forces:  Max     0.238812316 RMS     0.047738001
 Search for a local minimum.
 Step number   1 out of a maximum of   61
 All quantities printed in internal units (Hartrees-Bohrs-Radians)
 Mixed Optimization -- RFO/linear search
 Second derivative matrix not updated -- first step.
 ITU=  0
     Eigenvalues ---    0.00230   0.00278   0.00729   0.01341   0.01880
     Eigenvalues ---    0.01981   0.04168   0.07100   0.07126   0.10114
     Eigenvalues ---    0.13044   0.14158   0.16000   0.16821   0.17324
     Eigenvalues ---    0.21896   0.23517   0.24883   0.25000   0.25000
     Eigenvalues ---    0.25000   0.25000   0.25000   0.28166   0.31668
     Eigenvalues ---    0.34044   0.37403   0.49447   0.53309   0.53345
     Eigenvalues ---    0.53360   0.56016   0.60536   0.75657   1.01102
     Eigenvalues ---    1.04845
 RFO step:  Lambda=-1.45489880D-01 EMin= 2.30000000D-03
 Linear search not attempted -- first point.
 Maximum step size (   0.300) exceeded in Quadratic search.
    -- Step size scaled by   0.692
 Iteration  1 RMS(Cart)=  0.06863956 RMS(Int)=  0.00212912
 Iteration  2 RMS(Cart)=  0.00370988 RMS(Int)=  0.00018128
 Iteration  3 RMS(Cart)=  0.00000756 RMS(Int)=  0.00018121
 Iteration  4 RMS(Cart)=  0.00000000 RMS(Int)=  0.00018121
 Variable       Old X    -DE/DX   Delta X   Delta X   Delta X     New X
                                 (Linear)    (Quad)   (Total)
    R1        2.94219  -0.02241   0.00000  -0.02064  -0.02064   2.92154
    R2        2.97940  -0.03807   0.00000  -0.03732  -0.03732   2.94208
    R3        2.84046   0.01967   0.00000   0.01508   0.01508   2.85554
    R4        3.24256  -0.02025   0.00000  -0.02882  -0.02882   3.21374
    R5        2.84756  -0.02598   0.00000  -0.03888  -0.03888   2.80869
    R6        1.83320   0.11449   0.00000   0.11662   0.11662   1.94981
    R7        1.83366   0.10996   0.00000   0.11208   0.11208   1.94575
    R8        2.91777  -0.00806   0.00000  -0.01305  -0.01305   2.90471
    R9        2.26759   0.08339   0.00000   0.04831   0.04831   2.31590
   R10        2.75243   0.00032   0.00000   0.00043   0.00043   2.75286
   R11        2.60428   0.05657   0.00000   0.06114   0.06114   2.66542
   R12        1.83333   0.11603   0.00000   0.11821   0.11821   1.95154
   R13        1.54900   0.23881   0.00000   0.14283   0.14283   1.69184
    A1        1.93768   0.01184   0.00000   0.02255   0.02243   1.96011
    A2        1.99396   0.00359   0.00000   0.00567   0.00552   1.99948
    A3        1.84170  -0.00091   0.00000  -0.00117  -0.00128   1.84042
    A4        1.97806   0.00887   0.00000   0.01442   0.01406   1.99212
    A5        1.82245  -0.01646   0.00000  -0.02856  -0.02876   1.79370
    A6        1.87486  -0.01094   0.00000  -0.01986  -0.02007   1.85479
    A7        1.91520   0.01662   0.00000   0.02907   0.02907   1.94427
    A8        1.94929  -0.00985   0.00000  -0.02205  -0.02199   1.92730
    A9        1.94989  -0.00972   0.00000  -0.02006  -0.02023   1.92966
   A10        1.75239   0.02267   0.00000   0.04218   0.04229   1.79469
   A11        1.90957   0.00723   0.00000   0.01608   0.01592   1.92549
   A12        1.94978  -0.00764   0.00000  -0.01506  -0.01488   1.93490
   A13        1.94952  -0.00258   0.00000  -0.00123  -0.00113   1.94839
   A14        2.05908  -0.00536   0.00000  -0.00884  -0.00901   2.05007
   A15        2.07978  -0.01726   0.00000  -0.02955  -0.02969   2.05009
   A16        2.13921   0.02326   0.00000   0.04144   0.04132   2.18054
   A17        2.11389  -0.04999   0.00000  -0.09093  -0.09077   2.02313
   A18        1.86884   0.01870   0.00000   0.03639   0.03648   1.90532
   A19        1.86855   0.01168   0.00000   0.01857   0.01897   1.88752
   A20        1.91040  -0.00211   0.00000  -0.00478  -0.00478   1.90562
    D1        0.90184  -0.00095   0.00000   0.00120   0.00122   0.90306
    D2        2.94591   0.00466   0.00000   0.01338   0.01317   2.95908
    D3       -1.23208   0.00110   0.00000   0.00565   0.00584  -1.22624
    D4        1.20608  -0.00204   0.00000  -0.00477  -0.00451   1.20157
    D5       -0.93918   0.00288   0.00000   0.00511   0.00484  -0.93434
    D6       -3.00812  -0.00254   0.00000  -0.00827  -0.00826  -3.01638
    D7       -1.23519  -0.00238   0.00000  -0.01029  -0.00999  -1.24518
    D8        1.80078   0.00562   0.00000   0.02378   0.02368   1.82446
    D9        0.83343  -0.00449   0.00000  -0.01889  -0.01873   0.81470
   D10       -2.41379   0.00351   0.00000   0.01518   0.01495  -2.39884
   D11        2.97879  -0.00256   0.00000  -0.00988  -0.00974   2.96904
   D12       -0.26843   0.00544   0.00000   0.02420   0.02393  -0.24450
   D13        2.64399   0.01555   0.00000   0.06068   0.06060   2.70459
   D14       -1.49330   0.01112   0.00000   0.05109   0.05060  -1.44270
   D15       -0.60831   0.02197   0.00000   0.09294   0.09343  -0.51489
   D16        1.53759   0.01754   0.00000   0.08335   0.08342   1.62101
   D17       -1.05338  -0.00214   0.00000  -0.00720  -0.00702  -1.06040
   D18        3.08377  -0.00104   0.00000  -0.00607  -0.00626   3.07751
         Item               Value     Threshold  Converged?
 Maximum Force            0.238812     0.000450     NO 
 RMS     Force            0.047738     0.000300     NO 
 Maximum Displacement     0.277520     0.001800     NO 
 RMS     Displacement     0.068917     0.001200     NO 
 Predicted change in Energy=-7.412226D-02
 GradGradGradGradGradGradGradGradGradGradGradGradGradGradGradGradGradGrad

                          Input orientation:                          
 ---------------------------------------------------------------------
 Center     Atomic      Atomic             Coordinates (Angstroms)
 Number     Number       Type             X           Y           Z
 ---------------------------------------------------------------------
      1         15           0       22.384796   42.165726   16.897110
      2          8           0       21.668669   41.016382   16.151234
      3          8           0       23.037116   41.690215   18.228370
      4          8           0       21.572632   43.433546   17.025198
      5          8           0       23.732645   42.558195   15.937192
      6          6           0       23.339727   42.802901   14.524818
      7          1           0       22.788950   43.672156   14.449710
      8          1           0       22.802256   42.005992   14.155724
      9          6           0       24.694746   42.950334   13.814263
     10          8           0       25.341187   43.967701   14.035581
     11          6           0       25.153179   41.830645   13.002935
     12          8           0       26.053788   42.149263   11.965227
     13          1           0       25.658206   42.715857   11.396004
     14          1           0       25.602104   41.130087   13.614634
 ---------------------------------------------------------------------
                    Distance matrix (angstroms):
                    1          2          3          4          5
     1  P    0.000000
     2  O    1.546014   0.000000
     3  O    1.556884   2.577051   0.000000
     4  O    1.511087   2.572104   2.575178   0.000000
     5  O    1.700638   2.585149   2.546890   2.572091   0.000000
     6  C    2.635461   2.937569   3.878910   3.126058   1.486293
     7  H    2.902144   3.347141   4.274103   2.858234   2.084244
     8  H    2.777586   2.499281   4.091616   3.432748   2.084270
     9  C    3.931338   4.284710   4.880572   4.504574   2.363523
    10  O    4.491738   5.164655   5.298601   4.839952   2.861860
    11  C    4.789658   4.766195   5.639381   5.618559   3.340227
    12  O    6.146970   6.167280   6.966922   6.879930   4.618597
    13  H    6.424953   6.435591   7.389403   6.992482   4.935082
    14  H    4.711504   4.681792   5.308434   5.759732   3.305851
                    6          7          8          9         10
     6  C    0.000000
     7  H    1.031795   0.000000
     8  H    1.029645   1.691954   0.000000
     9  C    1.537108   2.134685   2.142404   0.000000
    10  O    2.366845   2.602453   3.210749   1.225522   0.000000
    11  C    2.559300   3.327747   2.624216   1.456749   2.380907
    12  O    3.787463   4.376188   3.923170   2.430565   2.846205
    13  H    3.895176   4.297936   4.034404   2.613658   2.938533
    14  H    2.957210   3.882435   2.983142   2.043636   2.880508
                   11         12         13         14
    11  C    0.000000
    12  O    1.410479   0.000000
    13  H    1.902861   0.895281   0.000000
    14  H    1.032711   1.990799   2.727661   0.000000
 Stoichiometry    C3H4O6P(3-)
 Framework group  C1[X(C3H4O6P)]
 Deg. of freedom    36
 Full point group                 C1      NOp   1
 Largest Abelian subgroup         C1      NOp   1
 Largest concise Abelian subgroup C1      NOp   1
                         Standard orientation:                         
 ---------------------------------------------------------------------
 Center     Atomic      Atomic             Coordinates (Angstroms)
 Number     Number       Type             X           Y           Z
 ---------------------------------------------------------------------
      1         15           0       -1.987354   -0.088567    0.031935
      2          8           0       -1.918664   -1.461444   -0.675631
      3          8           0       -2.694973   -0.171967    1.416207
      4          8           0       -2.471267    1.045069   -0.842182
      5          8           0       -0.382404    0.285322    0.452070
      6          6           0        0.526214    0.166462   -0.718123
      7          1           0        0.327731    0.910235   -1.405150
      8          1           0        0.431451   -0.760188   -1.156883
      9          6           0        1.916689    0.357171   -0.091297
     10          8           0        2.212707    1.481654    0.295765
     11          6           0        2.744453   -0.829134    0.080768
     12          8           0        4.136920   -0.608416    0.122857
     13          1           0        4.399645   -0.238705   -0.649036
     14          1           0        2.468807   -1.311562    0.951270
 ---------------------------------------------------------------------
 Rotational constants (GHZ):      2.8937445      0.5160570      0.4951277
 Standard basis: 6-311G(d,p) (5D, 7F)
 There are   222 symmetry adapted cartesian basis functions of A   symmetry.
 There are   212 symmetry adapted basis functions of A   symmetry.
   212 basis functions,   366 primitive gaussians,   222 cartesian basis functions
    44 alpha electrons       44 beta electrons
       nuclear repulsion energy       634.4407012701 Hartrees.
 NAtoms=   14 NActive=   14 NUniq=   14 SFac= 1.00D+00 NAtFMM=   60 NAOKFM=F Big=F
 Integral buffers will be    131072 words long.
 Raffenetti 2 integral format.
 Two-electron integral symmetry is turned on.
 ------------------------------------------------------------------------------
 Polarizable Continuum Model (PCM)
 =================================
 Model                : PCM (using non-symmetric T matrix).
 Atomic radii         : SMD-Coulomb.
 Polarization charges : Total charges.
 Charge compensation  : None.
 Solution method      : On-the-fly selection.
 Cavity type          : VdW (van der Waals Surface) (Alpha=1.000).
 Cavity algorithm     : GePol (No added spheres)
                        Default sphere list used, NSphG=   14.
                        Lebedev-Laikov grids with approx.  5.0 points / Ang**2.
                        Smoothing algorithm: York/Karplus (Gamma=1.0000).
                        Polarization charges: spherical gaussians, with
                                              point-specific exponents (IZeta= 3).
                        Self-potential: point-specific (ISelfS= 7).
                        Self-field    : sphere-specific E.n sum rule (ISelfD= 2).
 1st derivatives      : Analytical E(r).r(x)/FMM algorithm (CHGder, D1EAlg=3).
                        Cavity 1st derivative terms included.
 Solvent              : Water, Eps=  78.355300 Eps(inf)=   1.777849
 ------------------------------------------------------------------------------
 Spheres list:
 ISph  on   Nord     Re0    Alpha      Xe            Ye            Ze
    1   P      1    2.1200  1.000     -1.987354     -0.088567      0.031935
    2   O      2    1.5200  1.000     -1.918664     -1.461444     -0.675631
    3   O      3    1.5200  1.000     -2.694973     -0.171967      1.416207
    4   O      4    1.5200  1.000     -2.471267      1.045069     -0.842182
    5   O      5    1.5200  1.000     -0.382404      0.285322      0.452070
    6   C      6    1.8500  1.000      0.526214      0.166462     -0.718123
    7   H      7    1.2000  1.000      0.327731      0.910235     -1.405150
    8   H      8    1.2000  1.000      0.431451     -0.760188     -1.156883
    9   C      9    1.8500  1.000      1.916689      0.357171     -0.091297
   10   O     10    1.5200  1.000      2.212707      1.481654      0.295765
   11   C     11    1.8500  1.000      2.744453     -0.829134      0.080768
   12   O     12    1.5200  1.000      4.136920     -0.608416      0.122857
   13   H     13    1.2000  1.000      4.399645     -0.238705     -0.649036
   14   H     14    1.2000  1.000      2.468807     -1.311562      0.951270
 ------------------------------------------------------------------------------
 ------------------------------------------------------------------------------
 Atomic radii for non-electrostatic terms: SMD-CDS.
 ------------------------------------------------------------------------------
 Nuclear repulsion after PCM non-electrostatic terms =      634.4530895718 Hartrees.
 One-electron integrals computed using PRISM.
 NBasis=   212 RedAO= T EigKep=  2.17D-03  NBF=   212
 NBsUse=   212 1.00D-06 EigRej= -1.00D+00 NBFU=   212
 Initial guess from the checkpoint file:  "sub-_opt.chk"
 B after Tr=    -0.000000   -0.000000   -0.000000
         Rot=    0.999971    0.007461   -0.000376    0.001592 Ang=   0.88 deg.
 ExpMin= 6.85D-02 ExpMax= 7.75D+04 ExpMxC= 2.65D+03 IAcc=2 IRadAn=         4 AccDes= 0.00D+00
 Harris functional with IExCor= 1009 and IRadAn=       4 diagonalized for initial guess.
 HarFok:  IExCor= 1009 AccDes= 0.00D+00 IRadAn=         4 IDoV= 1 UseB2=F ITyADJ=14
 ICtDFT=  3500011 ScaDFX=  1.000000  1.000000  1.000000  1.000000
 FoFCou: FMM=F IPFlag=           0 FMFlag=      100000 FMFlg1=           0
         NFxFlg=           0 DoJE=T BraDBF=F KetDBF=T FulRan=T
         wScrn=  0.000000 ICntrl=     500 IOpCl=  0 I1Cent=   200000004 NGrid=           0
         NMat0=    1 NMatS0=      1 NMatT0=    0 NMatD0=    1 NMtDS0=    0 NMtDT0=    0
 Petite list used in FoFCou.
 Requested convergence on RMS density matrix=1.00D-08 within 128 cycles.
 Requested convergence on MAX density matrix=1.00D-06.
 Requested convergence on             energy=1.00D-06.
 No special actions if energy rises.
 Inv3:  Mode=1 IEnd=     4043763.
 Iteration    1 A*A^-1 deviation from unit magnitude is 3.55D-15 for   1145.
 Iteration    1 A*A^-1 deviation from orthogonality  is 2.75D-15 for    765     24.
 Iteration    1 A^-1*A deviation from unit magnitude is 3.66D-15 for   1158.
 Iteration    1 A^-1*A deviation from orthogonality  is 2.48D-13 for    965    752.
 Error on total polarization charges =  0.06394
 SCF Done:  E(RM062X) =  -909.787320717     A.U. after   14 cycles
            NFock= 14  Conv=0.29D-08     -V/T= 2.0016
 SMD-CDS (non-electrostatic) energy       (kcal/mol) =       7.77
 (included in total energy above)
 D1PCM: PCM CHGder 1st derivatives, ID1Alg=3 FixD1E=F DoIter=F DoCFld=F I1PDM=0.
 Calling FoFJK, ICntrl=      2127 FMM=F ISym2X=0 I1Cent= 0 IOpClX= 0 NMat=1 NMatS=1 NMatT=0.
 ***** Axes restored to original set *****
 -------------------------------------------------------------------
 Center     Atomic                   Forces (Hartrees/Bohr)
 Number     Number              X              Y              Z
 -------------------------------------------------------------------
      1       15           0.020298183   -0.031461600    0.012158769
      2        8           0.004870293    0.012113207    0.005890238
      3        8          -0.007177920    0.009963111   -0.021118666
      4        8          -0.007098268    0.011462557   -0.001446477
      5        8          -0.028686563   -0.000409345   -0.010624210
      6        6           0.074779517   -0.013256395    0.038292320
      7        1          -0.023167576    0.041917125   -0.002053666
      8        1          -0.022627715   -0.037467597   -0.013289597
      9        6          -0.003603455   -0.044213998   -0.001489158
     10        8           0.009643804    0.047404846   -0.008660242
     11        6          -0.054458155    0.035913302   -0.015447620
     12        8           0.070029078   -0.039549464    0.043359009
     13        1          -0.039919258    0.050916820   -0.050135360
     14        1           0.007118035   -0.043332568    0.024564661
 -------------------------------------------------------------------
 Cartesian Forces:  Max     0.074779517 RMS     0.031454784

 GradGradGradGradGradGradGradGradGradGradGradGradGradGradGradGradGradGrad
 Berny optimization.
 Using GEDIIS/GDIIS optimizer.
 FormGI is forming the generalized inverse of G from B-inverse, IUseBI=4.
 Internal  Forces:  Max     0.081747324 RMS     0.019940209
 Search for a local minimum.
 Step number   2 out of a maximum of   61
 All quantities printed in internal units (Hartrees-Bohrs-Radians)
 Mixed Optimization -- RFO/linear search
 Update second derivatives using D2CorX and points    1    2
 DE= -7.12D-02 DEPred=-7.41D-02 R= 9.61D-01
 TightC=F SS=  1.41D+00  RLast= 3.38D-01 DXNew= 5.0454D-01 1.0129D+00
 Trust test= 9.61D-01 RLast= 3.38D-01 DXMaxT set to 5.05D-01
 ITU=  1  0
 Use linear search instead of GDIIS.
     Eigenvalues ---    0.00230   0.00278   0.00733   0.01329   0.01880
     Eigenvalues ---    0.01982   0.04544   0.06876   0.07110   0.10400
     Eigenvalues ---    0.13239   0.13743   0.15960   0.17053   0.17544
     Eigenvalues ---    0.21834   0.23702   0.24818   0.24957   0.25000
     Eigenvalues ---    0.25000   0.25000   0.25457   0.28147   0.31359
     Eigenvalues ---    0.33991   0.37262   0.49311   0.53311   0.53337
     Eigenvalues ---    0.54457   0.56840   0.60455   0.75463   1.01945
     Eigenvalues ---    1.07905
 RFO step:  Lambda=-6.45949826D-02 EMin= 2.29932820D-03
 Quartic linear search produced a step of  1.19176.
 Iteration  1 RMS(Cart)=  0.16700686 RMS(Int)=  0.08335289
 Iteration  2 RMS(Cart)=  0.10522025 RMS(Int)=  0.02612567
 Iteration  3 RMS(Cart)=  0.04469453 RMS(Int)=  0.00249418
 Iteration  4 RMS(Cart)=  0.00166037 RMS(Int)=  0.00222426
 Iteration  5 RMS(Cart)=  0.00000211 RMS(Int)=  0.00222426
 Iteration  6 RMS(Cart)=  0.00000001 RMS(Int)=  0.00222426
 Variable       Old X    -DE/DX   Delta X   Delta X   Delta X     New X
                                 (Linear)    (Quad)   (Total)
    R1        2.92154  -0.01410  -0.02460  -0.01249  -0.03709   2.88445
    R2        2.94208  -0.02411  -0.04448  -0.02400  -0.06847   2.87361
    R3        2.85554   0.01330   0.01798   0.01051   0.02848   2.88402
    R4        3.21374  -0.01165  -0.03435  -0.01828  -0.05262   3.16112
    R5        2.80869  -0.01936  -0.04633  -0.04952  -0.09586   2.71283
    R6        1.94981   0.04783   0.13898  -0.00729   0.13169   2.08150
    R7        1.94575   0.04557   0.13358  -0.00824   0.12534   2.07108
    R8        2.90471  -0.00557  -0.01556  -0.01491  -0.03046   2.87425
    R9        2.31590   0.04288   0.05758   0.00526   0.06283   2.37873
   R10        2.75286  -0.00978   0.00051  -0.04610  -0.04559   2.70727
   R11        2.66542   0.02678   0.07287   0.00891   0.08178   2.74720
   R12        1.95154   0.04703   0.14088  -0.01231   0.12857   2.08011
   R13        1.69184   0.08175   0.17022  -0.06147   0.10875   1.80059
    A1        1.96011   0.00549   0.02673   0.01348   0.04001   2.00012
    A2        1.99948  -0.00149   0.00658  -0.02097  -0.01468   1.98480
    A3        1.84042   0.00260  -0.00152   0.01990   0.01819   1.85860
    A4        1.99212   0.00268   0.01676  -0.00449   0.01123   2.00335
    A5        1.79370  -0.00640  -0.03427  -0.00073  -0.03546   1.75823
    A6        1.85479  -0.00427  -0.02392  -0.00346  -0.02785   1.82694
    A7        1.94427   0.01457   0.03464   0.05524   0.08988   2.03414
    A8        1.92730  -0.00628  -0.02621  -0.02967  -0.05492   1.87238
    A9        1.92966  -0.00573  -0.02411  -0.01181  -0.03812   1.89154
   A10        1.79469   0.01615   0.05040   0.05950   0.11014   1.90482
   A11        1.92549   0.00329   0.01897   0.00274   0.02062   1.94611
   A12        1.93490  -0.00573  -0.01773  -0.02871  -0.04487   1.89003
   A13        1.94839  -0.00135  -0.00135   0.00996   0.00839   1.95679
   A14        2.05007  -0.00167  -0.01074   0.00485  -0.01172   2.03836
   A15        2.05009  -0.00709  -0.03539  -0.00198  -0.04358   2.00651
   A16        2.18054   0.00917   0.04925   0.00795   0.05036   2.23089
   A17        2.02313  -0.02388  -0.10817  -0.04326  -0.15033   1.87280
   A18        1.90532   0.01300   0.04347   0.05683   0.09919   2.00450
   A19        1.88752   0.00172   0.02261  -0.03924  -0.01324   1.87428
   A20        1.90562  -0.00710  -0.00570  -0.05847  -0.06417   1.84145
    D1        0.90306  -0.00073   0.00145   0.02128   0.02281   0.92587
    D2        2.95908   0.00366   0.01570   0.04396   0.05887   3.01796
    D3       -1.22624   0.00183   0.00696   0.03706   0.04472  -1.18152
    D4        1.20157  -0.00184  -0.00538  -0.02467  -0.02818   1.17339
    D5       -0.93434   0.00216   0.00577   0.00007   0.00423  -0.93011
    D6       -3.01638  -0.00256  -0.00984  -0.03918  -0.04928  -3.06566
    D7       -1.24518  -0.00105  -0.01191  -0.03157  -0.03995  -1.28513
    D8        1.82446   0.00533   0.02822   0.12510   0.15229   1.97675
    D9        0.81470  -0.00207  -0.02232  -0.04648  -0.06691   0.74779
   D10       -2.39884   0.00430   0.01781   0.11020   0.12533  -2.27351
   D11        2.96904  -0.00296  -0.01161  -0.05665  -0.06683   2.90222
   D12       -0.24450   0.00342   0.02852   0.10002   0.12541  -0.11908
   D13        2.70459   0.01550   0.07223   0.31662   0.38820   3.09279
   D14       -1.44270   0.01094   0.06031   0.27873   0.33430  -1.10839
   D15       -0.51489   0.02184   0.11134   0.48604   0.60212   0.08723
   D16        1.62101   0.01728   0.09942   0.44816   0.54822   2.16923
   D17       -1.06040   0.00007  -0.00836  -0.00667  -0.01199  -1.07239
   D18        3.07751  -0.00157  -0.00746  -0.01994  -0.03044   3.04707
         Item               Value     Threshold  Converged?
 Maximum Force            0.081747     0.000450     NO 
 RMS     Force            0.019940     0.000300     NO 
 Maximum Displacement     0.750746     0.001800     NO 
 RMS     Displacement     0.255676     0.001200     NO 
 Predicted change in Energy=-4.383694D-02
 GradGradGradGradGradGradGradGradGradGradGradGradGradGradGradGradGradGrad

                          Input orientation:                          
 ---------------------------------------------------------------------
 Center     Atomic      Atomic             Coordinates (Angstroms)
 Number     Number       Type             X           Y           Z
 ---------------------------------------------------------------------
      1         15           0       22.408851   42.186564   16.939821
      2          8           0       21.702887   40.971656   16.343608
      3          8           0       23.145084   41.914823   18.242317
      4          8           0       21.557599   43.453265   16.938366
      5          8           0       23.691093   42.536481   15.924123
      6          6           0       23.381022   42.698712   14.531862
      7          1           0       22.772079   43.611595   14.436499
      8          1           0       22.831717   41.812318   14.194636
      9          6           0       24.672011   42.902641   13.753939
     10          8           0       25.236790   44.021052   13.875134
     11          6           0       25.008132   41.841976   12.851483
     12          8           0       26.221516   42.235681   12.154272
     13          1           0       25.996393   43.031116   11.680467
     14          1           0       25.204826   40.871120   13.331472
 ---------------------------------------------------------------------
                    Distance matrix (angstroms):
                    1          2          3          4          5
     1  P    0.000000
     2  O    1.526387   0.000000
     3  O    1.520650   2.564097   0.000000
     4  O    1.526159   2.556018   2.566554   0.000000
     5  O    1.672791   2.564685   2.461423   2.533964   0.000000
     6  C    2.646824   3.013516   3.799687   3.112150   1.435567
     7  H    2.903321   3.427756   4.183589   2.785564   2.052677
     8  H    2.802663   2.568861   4.061087   3.441531   2.062539
     9  C    3.972972   4.387572   4.842812   4.488131   2.409559
    10  O    4.555754   5.280213   5.280503   4.821018   2.965044
    11  C    4.856903   4.886413   5.704151   5.586146   3.414388
    12  O    6.118848   6.290174   6.828738   6.791331   4.550307
    13  H    6.422190   6.664866   7.241128   6.893953   4.854656
    14  H    4.750585   4.620243   5.426624   5.742771   3.433170
                    6          7          8          9         10
     6  C    0.000000
     7  H    1.101482   0.000000
     8  H    1.095971   1.816439   0.000000
     9  C    1.520988   2.139684   2.183965   0.000000
    10  O    2.371444   2.560778   3.281000   1.258772   0.000000
    11  C    2.491015   3.262477   2.557679   1.432625   2.418371
    12  O    3.733060   4.358935   3.979077   2.324808   2.668071
    13  H    3.883440   4.281223   4.221574   2.463692   2.524586
    14  H    2.847331   3.827473   2.694913   2.142300   3.196664
                   11         12         13         14
    11  C    0.000000
    12  O    1.453756   0.000000
    13  H    1.939585   0.952832   0.000000
    14  H    1.100746   2.069175   2.831604   0.000000
 Stoichiometry    C3H4O6P(3-)
 Framework group  C1[X(C3H4O6P)]
 Deg. of freedom    36
 Full point group                 C1      NOp   1
 Largest Abelian subgroup         C1      NOp   1
 Largest concise Abelian subgroup C1      NOp   1
                         Standard orientation:                         
 ---------------------------------------------------------------------
 Center     Atomic      Atomic             Coordinates (Angstroms)
 Number     Number       Type             X           Y           Z
 ---------------------------------------------------------------------
      1         15           0       -2.007740   -0.076001    0.056310
      2          8           0       -2.059779   -1.452314   -0.601651
      3          8           0       -2.628583   -0.013462    1.443040
      4          8           0       -2.406451    1.065268   -0.875192
      5          8           0       -0.401358    0.215740    0.420523
      6          6           0        0.536455    0.076650   -0.657444
      7          1           0        0.326970    0.881824   -1.379297
      8          1           0        0.400113   -0.912832   -1.108541
      9          6           0        1.946029    0.271835   -0.120405
     10          8           0        2.283765    1.448607    0.172249
     11          6           0        2.774590   -0.896274   -0.158117
     12          8           0        4.089811   -0.509281    0.325449
     13          1           0        4.401288    0.152371   -0.285359
     14          1           0        2.426049   -1.731072    0.468996
 ---------------------------------------------------------------------
 Rotational constants (GHZ):      2.9504305      0.5149622      0.4946591
 Standard basis: 6-311G(d,p) (5D, 7F)
 There are   222 symmetry adapted cartesian basis functions of A   symmetry.
 There are   212 symmetry adapted basis functions of A   symmetry.
   212 basis functions,   366 primitive gaussians,   222 cartesian basis functions
    44 alpha electrons       44 beta electrons
       nuclear repulsion energy       636.0031763683 Hartrees.
 NAtoms=   14 NActive=   14 NUniq=   14 SFac= 1.00D+00 NAtFMM=   60 NAOKFM=F Big=F
 Integral buffers will be    131072 words long.
 Raffenetti 2 integral format.
 Two-electron integral symmetry is turned on.
 ------------------------------------------------------------------------------
 Polarizable Continuum Model (PCM)
 =================================
 Model                : PCM (using non-symmetric T matrix).
 Atomic radii         : SMD-Coulomb.
 Polarization charges : Total charges.
 Charge compensation  : None.
 Solution method      : On-the-fly selection.
 Cavity type          : VdW (van der Waals Surface) (Alpha=1.000).
 Cavity algorithm     : GePol (No added spheres)
                        Default sphere list used, NSphG=   14.
                        Lebedev-Laikov grids with approx.  5.0 points / Ang**2.
                        Smoothing algorithm: York/Karplus (Gamma=1.0000).
                        Polarization charges: spherical gaussians, with
                                              point-specific exponents (IZeta= 3).
                        Self-potential: point-specific (ISelfS= 7).
                        Self-field    : sphere-specific E.n sum rule (ISelfD= 2).
 1st derivatives      : Analytical E(r).r(x)/FMM algorithm (CHGder, D1EAlg=3).
                        Cavity 1st derivative terms included.
 Solvent              : Water, Eps=  78.355300 Eps(inf)=   1.777849
 ------------------------------------------------------------------------------
 Spheres list:
 ISph  on   Nord     Re0    Alpha      Xe            Ye            Ze
    1   P      1    2.1200  1.000     -2.007740     -0.076001      0.056310
    2   O      2    1.5200  1.000     -2.059779     -1.452314     -0.601651
    3   O      3    1.5200  1.000     -2.628583     -0.013462      1.443040
    4   O      4    1.5200  1.000     -2.406451      1.065268     -0.875192
    5   O      5    1.5200  1.000     -0.401358      0.215740      0.420523
    6   C      6    1.8500  1.000      0.536455      0.076650     -0.657444
    7   H      7    1.2000  1.000      0.326970      0.881824     -1.379297
    8   H      8    1.2000  1.000      0.400113     -0.912832     -1.108541
    9   C      9    1.8500  1.000      1.946029      0.271835     -0.120405
   10   O     10    1.5200  1.000      2.283765      1.448607      0.172249
   11   C     11    1.8500  1.000      2.774590     -0.896274     -0.158117
   12   O     12    1.5200  1.000      4.089811     -0.509281      0.325449
   13   H     13    1.2000  1.000      4.401288      0.152371     -0.285359
   14   H     14    1.2000  1.000      2.426049     -1.731072      0.468996
 ------------------------------------------------------------------------------
 ------------------------------------------------------------------------------
 Atomic radii for non-electrostatic terms: SMD-CDS.
 ------------------------------------------------------------------------------
 Nuclear repulsion after PCM non-electrostatic terms =      636.0153164082 Hartrees.
 One-electron integrals computed using PRISM.
 NBasis=   212 RedAO= T EigKep=  2.22D-03  NBF=   212
 NBsUse=   212 1.00D-06 EigRej= -1.00D+00 NBFU=   212
 Initial guess from the checkpoint file:  "sub-_opt.chk"
 B after Tr=    -0.000000   -0.000000    0.000000
         Rot=    0.999803    0.018789   -0.001877    0.006065 Ang=   2.27 deg.
 ExpMin= 6.85D-02 ExpMax= 7.75D+04 ExpMxC= 2.65D+03 IAcc=2 IRadAn=         4 AccDes= 0.00D+00
 Harris functional with IExCor= 1009 and IRadAn=       4 diagonalized for initial guess.
 HarFok:  IExCor= 1009 AccDes= 0.00D+00 IRadAn=         4 IDoV= 1 UseB2=F ITyADJ=14
 ICtDFT=  3500011 ScaDFX=  1.000000  1.000000  1.000000  1.000000
 FoFCou: FMM=F IPFlag=           0 FMFlag=      100000 FMFlg1=           0
         NFxFlg=           0 DoJE=T BraDBF=F KetDBF=T FulRan=T
         wScrn=  0.000000 ICntrl=     500 IOpCl=  0 I1Cent=   200000004 NGrid=           0
         NMat0=    1 NMatS0=      1 NMatT0=    0 NMatD0=    1 NMtDS0=    0 NMtDT0=    0
 Petite list used in FoFCou.
 Requested convergence on RMS density matrix=1.00D-08 within 128 cycles.
 Requested convergence on MAX density matrix=1.00D-06.
 Requested convergence on             energy=1.00D-06.
 No special actions if energy rises.
 Inv3:  Mode=1 IEnd=     3946827.
 Iteration    1 A*A^-1 deviation from unit magnitude is 6.00D-15 for   1141.
 Iteration    1 A*A^-1 deviation from orthogonality  is 2.47D-15 for   1145    612.
 Iteration    1 A^-1*A deviation from unit magnitude is 6.00D-15 for   1141.
 Iteration    1 A^-1*A deviation from orthogonality  is 6.48D-11 for   1143   1065.
 Error on total polarization charges =  0.06369
 SCF Done:  E(RM062X) =  -909.833776735     A.U. after   15 cycles
            NFock= 15  Conv=0.25D-08     -V/T= 2.0020
 SMD-CDS (non-electrostatic) energy       (kcal/mol) =       7.62
 (included in total energy above)
 D1PCM: PCM CHGder 1st derivatives, ID1Alg=3 FixD1E=F DoIter=F DoCFld=F I1PDM=0.
 Calling FoFJK, ICntrl=      2127 FMM=F ISym2X=0 I1Cent= 0 IOpClX= 0 NMat=1 NMatS=1 NMatT=0.
 ***** Axes restored to original set *****
 -------------------------------------------------------------------
 Center     Atomic                   Forces (Hartrees/Bohr)
 Number     Number              X              Y              Z
 -------------------------------------------------------------------
      1       15           0.006159579    0.004095071   -0.004204371
      2        8          -0.001815270   -0.002510827   -0.000590808
      3        8           0.000110639   -0.001406102    0.007245252
      4        8          -0.004296065    0.002073012    0.001225996
      5        8           0.002263781   -0.002505071   -0.003969294
      6        6           0.001139294   -0.001871496    0.012991779
      7        1          -0.001315927   -0.004754739   -0.005058345
      8        1           0.000100028    0.003548253   -0.002553351
      9        6          -0.019038327   -0.027294314   -0.004258812
     10        8           0.002694572    0.006346321   -0.007175358
     11        6           0.023856657    0.036237601    0.021511937
     12        8           0.005712459   -0.020491469   -0.004660060
     13        1          -0.001910742    0.007329577   -0.002987289
     14        1          -0.013660679    0.001204183   -0.007517275
 -------------------------------------------------------------------
 Cartesian Forces:  Max     0.036237601 RMS     0.010674455

 GradGradGradGradGradGradGradGradGradGradGradGradGradGradGradGradGradGrad
 Berny optimization.
 Using GEDIIS/GDIIS optimizer.
 FormGI is forming the generalized inverse of G from B-inverse, IUseBI=4.
 Internal  Forces:  Max     0.034632037 RMS     0.007329850
 Search for a local minimum.
 Step number   3 out of a maximum of   61
 All quantities printed in internal units (Hartrees-Bohrs-Radians)
 Mixed Optimization -- RFO/linear search
 Update second derivatives using D2CorX and points    2    3
 DE= -4.65D-02 DEPred=-4.38D-02 R= 1.06D+00
 TightC=F SS=  1.41D+00  RLast= 1.08D+00 DXNew= 8.4853D-01 3.2418D+00
 Trust test= 1.06D+00 RLast= 1.08D+00 DXMaxT set to 8.49D-01
 ITU=  1  1  0
 Use linear search instead of GDIIS.
     Eigenvalues ---    0.00230   0.00278   0.00813   0.01535   0.01879
     Eigenvalues ---    0.01986   0.05280   0.06124   0.07104   0.11155
     Eigenvalues ---    0.12885   0.13734   0.15966   0.17143   0.17781
     Eigenvalues ---    0.21434   0.24108   0.24612   0.24913   0.25000
     Eigenvalues ---    0.25000   0.25042   0.27297   0.28145   0.30266
     Eigenvalues ---    0.33699   0.36079   0.46363   0.51157   0.53333
     Eigenvalues ---    0.53465   0.56222   0.60503   0.75278   0.95208
     Eigenvalues ---    1.05900
 RFO step:  Lambda=-1.96826702D-02 EMin= 2.29924104D-03
 Quartic linear search produced a step of  0.09450.
 Iteration  1 RMS(Cart)=  0.12242889 RMS(Int)=  0.03117457
 Iteration  2 RMS(Cart)=  0.03991375 RMS(Int)=  0.00294805
 Iteration  3 RMS(Cart)=  0.00195783 RMS(Int)=  0.00225678
 Iteration  4 RMS(Cart)=  0.00000400 RMS(Int)=  0.00225678
 Iteration  5 RMS(Cart)=  0.00000004 RMS(Int)=  0.00225678
 Variable       Old X    -DE/DX   Delta X   Delta X   Delta X     New X
                                 (Linear)    (Quad)   (Total)
    R1        2.88445   0.00309  -0.00351   0.00535   0.00184   2.88630
    R2        2.87361   0.00651  -0.00647   0.01195   0.00548   2.87909
    R3        2.88402   0.00410   0.00269   0.00476   0.00745   2.89148
    R4        3.16112   0.00166  -0.00497   0.00491  -0.00007   3.16105
    R5        2.71283   0.00024  -0.00906   0.00251  -0.00655   2.70628
    R6        2.08150  -0.00277   0.01244  -0.00298   0.00947   2.09096
    R7        2.07108  -0.00214   0.01184  -0.00185   0.01000   2.08108
    R8        2.87425   0.00108  -0.00288   0.00401   0.00113   2.87538
    R9        2.37873   0.00617   0.00594   0.00562   0.01156   2.39029
   R10        2.70727  -0.01875  -0.00431  -0.04445  -0.04876   2.65851
   R11        2.74720   0.00330   0.00773   0.00675   0.01448   2.76168
   R12        2.08011  -0.00680   0.01215  -0.00986   0.00229   2.08240
   R13        1.80059   0.00807   0.01028   0.01176   0.02204   1.82263
    A1        2.00012  -0.00292   0.00378  -0.01054  -0.00687   1.99326
    A2        1.98480  -0.00323  -0.00139  -0.01188  -0.01334   1.97145
    A3        1.85860  -0.00034   0.00172  -0.00297  -0.00133   1.85728
    A4        2.00335  -0.00336   0.00106  -0.01023  -0.00946   1.99388
    A5        1.75823   0.00754  -0.00335   0.02726   0.02375   1.78198
    A6        1.82694   0.00516  -0.00263   0.01825   0.01547   1.84241
    A7        2.03414   0.00307   0.00849   0.00908   0.01757   2.05172
    A8        1.87238   0.00393  -0.00519   0.02926   0.02411   1.89649
    A9        1.89154   0.00448  -0.00360   0.03162   0.02779   1.91933
   A10        1.90482  -0.00463   0.01041  -0.01525  -0.00478   1.90004
   A11        1.94611  -0.00309   0.00195  -0.02900  -0.02757   1.91854
   A12        1.89003  -0.00007  -0.00424  -0.00574  -0.00997   1.88007
   A13        1.95679  -0.00052   0.00079  -0.00918  -0.00855   1.94824
   A14        2.03836   0.00456  -0.00111   0.01722   0.01556   2.05392
   A15        2.00651   0.00434  -0.00412   0.01594   0.01124   2.01775
   A16        2.23089  -0.00881   0.00476  -0.03059  -0.02648   2.20441
   A17        1.87280   0.03463  -0.01421   0.15443   0.13292   2.00571
   A18        2.00450  -0.00140   0.00937   0.04227   0.04337   2.04787
   A19        1.87428  -0.00816  -0.00125   0.02426   0.01307   1.88734
   A20        1.84145  -0.00061  -0.00606  -0.00016  -0.00623   1.83523
    D1        0.92587   0.00055   0.00216   0.02262   0.02475   0.95062
    D2        3.01796   0.00056   0.00556   0.02200   0.02739   3.04535
    D3       -1.18152   0.00183   0.00423   0.02856   0.03299  -1.14853
    D4        1.17339  -0.00029  -0.00266  -0.03323  -0.03561   1.13778
    D5       -0.93011  -0.00134   0.00040  -0.03293  -0.03276  -0.96288
    D6       -3.06566  -0.00065  -0.00466  -0.03199  -0.03670  -3.10237
    D7       -1.28513   0.00136  -0.00378   0.06788   0.06443  -1.22070
    D8        1.97675   0.00133   0.01439   0.04954   0.06381   2.04056
    D9        0.74779   0.00349  -0.00632   0.09124   0.08498   0.83276
   D10       -2.27351   0.00346   0.01184   0.07290   0.08436  -2.18916
   D11        2.90222  -0.00081  -0.00632   0.04433   0.03829   2.94051
   D12       -0.11908  -0.00084   0.01185   0.02598   0.03767  -0.08141
   D13        3.09279   0.00202   0.03669   0.16090   0.19468  -2.99571
   D14       -1.10839   0.01529   0.03159   0.32661   0.36057  -0.74783
   D15        0.08723   0.00073   0.05690   0.13568   0.19022   0.27745
   D16        2.16923   0.01400   0.05181   0.30139   0.35611   2.52533
   D17       -1.07239   0.00794  -0.00113   0.10233   0.10327  -0.96911
   D18        3.04707  -0.00593  -0.00288  -0.05340  -0.05836   2.98871
         Item               Value     Threshold  Converged?
 Maximum Force            0.034632     0.000450     NO 
 RMS     Force            0.007330     0.000300     NO 
 Maximum Displacement     0.585005     0.001800     NO 
 RMS     Displacement     0.156387     0.001200     NO 
 Predicted change in Energy=-1.385937D-02
 GradGradGradGradGradGradGradGradGradGradGradGradGradGradGradGradGradGrad

                          Input orientation:                          
 ---------------------------------------------------------------------
 Center     Atomic      Atomic             Coordinates (Angstroms)
 Number     Number       Type             X           Y           Z
 ---------------------------------------------------------------------
      1         15           0       22.447551   42.194356   16.974460
      2          8           0       21.782638   40.923510   16.449412
      3          8           0       23.195792   42.010592   18.288829
      4          8           0       21.518548   43.409800   16.945047
      5          8           0       23.688612   42.552258   15.911545
      6          6           0       23.357816   42.673119   14.523425
      7          1           0       22.689869   43.545609   14.393307
      8          1           0       22.852312   41.758406   14.176229
      9          6           0       24.631391   42.943351   13.735895
     10          8           0       25.184023   44.071772   13.881513
     11          6           0       24.989490   41.954959   12.801019
     12          8           0       26.306262   42.131493   12.192174
     13          1           0       26.290441   43.016706   11.809556
     14          1           0       24.895255   40.903069   13.115589
 ---------------------------------------------------------------------
                    Distance matrix (angstroms):
                    1          2          3          4          5
     1  P    0.000000
     2  O    1.527362   0.000000
     3  O    1.523549   2.561680   0.000000
     4  O    1.530103   2.548928   2.564504   0.000000
     5  O    1.672756   2.564149   2.487519   2.551996   0.000000
     6  C    2.658075   3.041667   3.826678   3.128874   1.432100
     7  H    2.923517   3.453410   4.217502   2.811016   2.071058
     8  H    2.860765   2.647379   4.134617   3.488894   2.083487
     9  C    3.977241   4.422479   4.864174   4.495110   2.403172
    10  O    4.536440   5.298592   5.256041   4.822774   2.943842
    11  C    4.892481   4.965739   5.773778   5.597943   3.424095
    12  O    6.145230   6.328228   6.845352   6.866300   4.567587
    13  H    6.490015   6.799266   7.250524   7.021307   4.879707
    14  H    4.748637   4.561050   5.556725   5.687758   3.463118
                    6          7          8          9         10
     6  C    0.000000
     7  H    1.106491   0.000000
     8  H    1.101262   1.807651   0.000000
     9  C    1.521585   2.136448   2.182454   0.000000
    10  O    2.388161   2.599920   3.297786   1.264887   0.000000
    11  C    2.478870   3.217733   2.548993   1.406822   2.384577
    12  O    3.797555   4.463519   4.000679   2.418136   2.806772
    13  H    4.010415   4.463141   4.359494   2.543347   2.574943
    14  H    2.734739   3.671418   2.455641   2.148757   3.272722
                   11         12         13         14
    11  C    0.000000
    12  O    1.461418   0.000000
    13  H    1.950072   0.964494   0.000000
    14  H    1.101956   2.086303   2.849514   0.000000
 Stoichiometry    C3H4O6P(3-)
 Framework group  C1[X(C3H4O6P)]
 Deg. of freedom    36
 Full point group                 C1      NOp   1
 Largest Abelian subgroup         C1      NOp   1
 Largest concise Abelian subgroup C1      NOp   1
                         Standard orientation:                         
 ---------------------------------------------------------------------
 Center     Atomic      Atomic             Coordinates (Angstroms)
 Number     Number       Type             X           Y           Z
 ---------------------------------------------------------------------
      1         15           0       -2.005548   -0.079247    0.075273
      2          8           0       -2.084224   -1.483309   -0.520757
      3          8           0       -2.629591    0.047695    1.459346
      4          8           0       -2.432732    1.011667   -0.908920
      5          8           0       -0.388673    0.209986    0.391777
      6          6           0        0.536834    0.050753   -0.689422
      7          1           0        0.316850    0.814575   -1.459166
      8          1           0        0.439639   -0.957169   -1.122346
      9          6           0        1.945208    0.305855   -0.173062
     10          8           0        2.249426    1.492367    0.142499
     11          6           0        2.824808   -0.790099   -0.238932
     12          8           0        4.107966   -0.590953    0.431583
     13          1           0        4.478033    0.206965    0.035822
     14          1           0        2.430218   -1.774337    0.060872
 ---------------------------------------------------------------------
 Rotational constants (GHZ):      2.8910616      0.5100595      0.4905294
 Standard basis: 6-311G(d,p) (5D, 7F)
 There are   222 symmetry adapted cartesian basis functions of A   symmetry.
 There are   212 symmetry adapted basis functions of A   symmetry.
   212 basis functions,   366 primitive gaussians,   222 cartesian basis functions
    44 alpha electrons       44 beta electrons
       nuclear repulsion energy       633.5809334091 Hartrees.
 NAtoms=   14 NActive=   14 NUniq=   14 SFac= 1.00D+00 NAtFMM=   60 NAOKFM=F Big=F
 Integral buffers will be    131072 words long.
 Raffenetti 2 integral format.
 Two-electron integral symmetry is turned on.
 ------------------------------------------------------------------------------
 Polarizable Continuum Model (PCM)
 =================================
 Model                : PCM (using non-symmetric T matrix).
 Atomic radii         : SMD-Coulomb.
 Polarization charges : Total charges.
 Charge compensation  : None.
 Solution method      : On-the-fly selection.
 Cavity type          : VdW (van der Waals Surface) (Alpha=1.000).
 Cavity algorithm     : GePol (No added spheres)
                        Default sphere list used, NSphG=   14.
                        Lebedev-Laikov grids with approx.  5.0 points / Ang**2.
                        Smoothing algorithm: York/Karplus (Gamma=1.0000).
                        Polarization charges: spherical gaussians, with
                                              point-specific exponents (IZeta= 3).
                        Self-potential: point-specific (ISelfS= 7).
                        Self-field    : sphere-specific E.n sum rule (ISelfD= 2).
 1st derivatives      : Analytical E(r).r(x)/FMM algorithm (CHGder, D1EAlg=3).
                        Cavity 1st derivative terms included.
 Solvent              : Water, Eps=  78.355300 Eps(inf)=   1.777849
 ------------------------------------------------------------------------------
 Spheres list:
 ISph  on   Nord     Re0    Alpha      Xe            Ye            Ze
    1   P      1    2.1200  1.000     -2.005548     -0.079247      0.075273
    2   O      2    1.5200  1.000     -2.084224     -1.483309     -0.520757
    3   O      3    1.5200  1.000     -2.629591      0.047695      1.459346
    4   O      4    1.5200  1.000     -2.432732      1.011667     -0.908920
    5   O      5    1.5200  1.000     -0.388673      0.209986      0.391777
[...]
 ! R5    R(5,6)                  1.4299         -DE/DX =    0.0                 !
 ! R6    R(6,7)                  1.098          -DE/DX =    0.0                 !
 ! R7    R(6,8)                  1.0962         -DE/DX =    0.0                 !
 ! R8    R(6,9)                  1.5053         -DE/DX =    0.0                 !
 ! R9    R(9,10)                 1.3136         -DE/DX =    0.0                 !
 ! R10   R(9,11)                 1.351          -DE/DX =    0.0                 !
 ! R11   R(11,12)                1.4056         -DE/DX =    0.0                 !
 ! R12   R(11,14)                1.0801         -DE/DX =    0.0                 !
 ! R13   R(12,13)                0.9696         -DE/DX =    0.0                 !
 ! A1    A(2,1,3)              114.3182         -DE/DX =    0.0                 !
 ! A2    A(2,1,4)              113.2271         -DE/DX =    0.0                 !
 ! A3    A(2,1,5)              105.6715         -DE/DX =    0.0                 !
 ! A4    A(3,1,4)              114.2578         -DE/DX =    0.0                 !
 ! A5    A(3,1,5)              101.9793         -DE/DX =    0.0                 !
 ! A6    A(4,1,5)              105.9204         -DE/DX =    0.0001              !
 ! A7    A(1,5,6)              116.8502         -DE/DX =    0.0                 !
 ! A8    A(5,6,7)              108.688          -DE/DX =    0.0                 !
 ! A9    A(5,6,8)              109.9712         -DE/DX =    0.0                 !
 ! A10   A(5,6,9)              109.3986         -DE/DX =    0.0                 !
 ! A11   A(7,6,8)              108.5957         -DE/DX =    0.0                 !
 ! A12   A(7,6,9)              109.1678         -DE/DX =    0.0                 !
 ! A13   A(8,6,9)              110.9776         -DE/DX =    0.0                 !
 ! A14   A(6,9,10)             118.625          -DE/DX =    0.0                 !
 ! A15   A(6,9,11)             118.3802         -DE/DX =    0.0                 !
 ! A16   A(10,9,11)            122.9847         -DE/DX =    0.0                 !
 ! A17   A(9,11,12)            118.9002         -DE/DX =    0.0                 !
 ! A18   A(9,11,14)            126.6389         -DE/DX =    0.0                 !
 ! A19   A(12,11,14)           114.4602         -DE/DX =    0.0                 !
 ! A20   A(11,12,13)           102.7347         -DE/DX =    0.0                 !
 ! D1    D(2,1,5,6)             60.5971         -DE/DX =    0.0                 !
 ! D2    D(3,1,5,6)           -179.6176         -DE/DX =    0.0                 !
 ! D3    D(4,1,5,6)            -59.7984         -DE/DX =    0.0                 !
 ! D4    D(1,5,6,7)             54.6357         -DE/DX =    0.0                 !
 ! D5    D(1,5,6,8)            -64.1213         -DE/DX =    0.0                 !
 ! D6    D(1,5,6,9)            173.7516         -DE/DX =    0.0                 !
 ! D7    D(5,6,9,10)           -59.9139         -DE/DX =    0.0                 !
 ! D8    D(5,6,9,11)           121.2074         -DE/DX =    0.0                 !
 ! D9    D(7,6,9,10)            58.9047         -DE/DX =    0.0                 !
 ! D10   D(7,6,9,11)          -119.9739         -DE/DX =    0.0                 !
 ! D11   D(8,6,9,10)           178.5645         -DE/DX =    0.0                 !
 ! D12   D(8,6,9,11)            -0.3142         -DE/DX =    0.0                 !
 ! D13   D(6,9,11,12)          177.7476         -DE/DX =    0.0                 !
 ! D14   D(6,9,11,14)           -1.9222         -DE/DX =    0.0                 !
 ! D15   D(10,9,11,12)          -1.079          -DE/DX =    0.0                 !
 ! D16   D(10,9,11,14)         179.2512         -DE/DX =    0.0                 !
 ! D17   D(9,11,12,13)           0.426          -DE/DX =    0.0                 !
 ! D18   D(14,11,12,13)       -179.8651         -DE/DX =    0.0                 !
 --------------------------------------------------------------------------------
 GradGradGradGradGradGradGradGradGradGradGradGradGradGradGradGradGradGrad

                          Input orientation:                          
 ---------------------------------------------------------------------
 Center     Atomic      Atomic             Coordinates (Angstroms)
 Number     Number       Type             X           Y           Z
 ---------------------------------------------------------------------
      1         15           0       22.462926   42.290687   16.994503
      2          8           0       21.818401   40.948120   16.641289
      3          8           0       23.182482   42.307608   18.339810
      4          8           0       21.534834   43.485250   16.762810
      5          8           0       23.728625   42.479342   15.922134
      6          6           0       23.397049   42.515723   14.531658
      7          1           0       22.644387   43.298592   14.369831
      8          1           0       22.972542   41.553468   14.222692
      9          6           0       24.629887   42.842505   13.732058
     10          8           0       25.245075   43.980346   13.960850
     11          6           0       25.039731   41.960343   12.794529
     12          8           0       26.161486   42.276302   12.008759
     13          1           0       26.425184   43.143980   12.351792
     14          1           0       24.587390   41.006736   12.565283
 ---------------------------------------------------------------------
                    Distance matrix (angstroms):
                    1          2          3          4          5
     1  P    0.000000
     2  O    1.530575   0.000000
     3  O    1.525746   2.567859   0.000000
     4  O    1.530365   2.555818   2.566810   0.000000
     5  O    1.669598   2.551623   2.484537   2.555642   0.000000
     6  C    2.643639   3.065951   3.819866   3.063636   1.429926
     7  H    2.817392   3.371423   4.127024   2.644295   2.063101
     8  H    2.913097   2.747381   4.190879   3.500141   2.077741
     9  C    3.955220   4.467301   4.859267   4.379262   2.395954
    10  O    4.449533   5.302947   5.121292   4.675681   2.898149
    11  C    4.938505   5.118509   5.858337   5.509710   3.430783
    12  O    6.207833   6.487433   6.996974   6.743031   4.612433
    13  H    6.162983   6.666637   6.860831   6.594625   4.523331
    14  H    5.077387   4.927937   6.083683   5.751553   3.764903
                    6          7          8          9         10
     6  C    0.000000
     7  H    1.097986   0.000000
     8  H    1.096176   1.781795   0.000000
     9  C    1.505336   2.134708   2.156184   0.000000
    10  O    2.426137   2.719492   3.335072   1.313577   0.000000
    11  C    2.454479   3.163884   2.545283   1.350978   2.341556
    12  O    3.750260   4.357720   3.948842   2.374056   2.748497
    13  H    3.783665   4.288451   4.236830   2.284538   2.163616
    14  H    2.749651   3.504890   2.377741   2.175595   3.350002
                   11         12         13         14
    11  C    0.000000
    12  O    1.405560   0.000000
    13  H    1.875231   0.969574   0.000000
    14  H    1.080061   2.097450   2.826814   0.000000
 Stoichiometry    C3H4O6P(3-)
 Framework group  C1[X(C3H4O6P)]
 Deg. of freedom    36
 Full point group                 C1      NOp   1
 Largest Abelian subgroup         C1      NOp   1
 Largest concise Abelian subgroup C1      NOp   1
                         Standard orientation:                         
 ---------------------------------------------------------------------
 Center     Atomic      Atomic             Coordinates (Angstroms)
 Number     Number       Type             X           Y           Z
 ---------------------------------------------------------------------
      1         15           0       -2.011391   -0.038630    0.064628
      2          8           0       -2.185902   -1.554782   -0.051506
      3          8           0       -2.685308    0.579679    1.285869
      4          8           0       -2.283739    0.702418   -1.246362
      5          8           0       -0.394213    0.204762    0.400860
      6          6           0        0.544890   -0.261528   -0.571430
      7          1           0        0.290741    0.177876   -1.545034
      8          1           0        0.486847   -1.352997   -0.654662
      9          6           0        1.930523    0.176042   -0.178253
     10          8           0        2.175707    1.461419   -0.063463
     11          6           0        2.872028   -0.772717    0.018134
     12          8           0        4.181295   -0.374376    0.338668
     13          1           0        4.112242    0.592575    0.356274
     14          1           0        2.733671   -1.841759   -0.049232
 ---------------------------------------------------------------------
 Rotational constants (GHZ):      3.0408828      0.5088703      0.4892294

 **********************************************************************

            Population analysis using the SCF density.

 **********************************************************************

 Orbital symmetries:
       Occupied  (A) (A) (A) (A) (A) (A) (A) (A) (A) (A) (A) (A)
                 (A) (A) (A) (A) (A) (A) (A) (A) (A) (A) (A) (A)
                 (A) (A) (A) (A) (A) (A) (A) (A) (A) (A) (A) (A)
                 (A) (A) (A) (A) (A) (A) (A) (A)
       Virtual   (A) (A) (A) (A) (A) (A) (A) (A) (A) (A) (A) (A)
                 (A) (A) (A) (A) (A) (A) (A) (A) (A) (A) (A) (A)
                 (A) (A) (A) (A) (A) (A) (A) (A) (A) (A) (A) (A)
                 (A) (A) (A) (A) (A) (A) (A) (A) (A) (A) (A) (A)
                 (A) (A) (A) (A) (A) (A) (A) (A) (A) (A) (A) (A)
                 (A) (A) (A) (A) (A) (A) (A) (A) (A) (A) (A) (A)
                 (A) (A) (A) (A) (A) (A) (A) (A) (A) (A) (A) (A)
                 (A) (A) (A) (A) (A) (A) (A) (A) (A) (A) (A) (A)
                 (A) (A) (A) (A) (A) (A) (A) (A) (A) (A) (A) (A)
                 (A) (A) (A) (A) (A) (A) (A) (A) (A) (A) (A) (A)
                 (A) (A) (A) (A) (A) (A) (A) (A) (A) (A) (A) (A)
                 (A) (A) (A) (A) (A) (A) (A) (A) (A) (A) (A) (A)
                 (A) (A) (A) (A) (A) (A) (A) (A) (A) (A) (A) (A)
                 (A) (A) (A) (A) (A) (A) (A) (A) (A) (A) (A) (A)
 The electronic state is 1-A.
 Alpha  occ. eigenvalues --  -78.07163 -19.60034 -19.59027 -19.51882 -19.51791
 Alpha  occ. eigenvalues --  -19.51779 -19.51496 -10.55750 -10.54135 -10.52720
 Alpha  occ. eigenvalues --   -6.88075  -5.00019  -4.99830  -4.99810  -1.13672
 Alpha  occ. eigenvalues --   -1.12995  -1.06153  -1.04015  -0.99929  -0.99681
 Alpha  occ. eigenvalues --   -0.81121  -0.72747  -0.61560  -0.59003  -0.54059
 Alpha  occ. eigenvalues --   -0.52101  -0.50529  -0.48720  -0.45740  -0.44650
 Alpha  occ. eigenvalues --   -0.43863  -0.42568  -0.41251  -0.39942  -0.37340
 Alpha  occ. eigenvalues --   -0.35354  -0.35238  -0.34508  -0.34184  -0.31326
 Alpha  occ. eigenvalues --   -0.30208  -0.28261  -0.28113  -0.20395
 Alpha virt. eigenvalues --    0.11353   0.12273   0.12782   0.15140   0.16705
 Alpha virt. eigenvalues --    0.17826   0.18833   0.21669   0.23133   0.27715
 Alpha virt. eigenvalues --    0.28278   0.31195   0.32370   0.35681   0.38430
 Alpha virt. eigenvalues --    0.38695   0.41256   0.44190   0.45695   0.48803
 Alpha virt. eigenvalues --    0.49901   0.51267   0.56657   0.58249   0.59797
 Alpha virt. eigenvalues --    0.62265   0.63484   0.63867   0.67066   0.68821
 Alpha virt. eigenvalues --    0.71840   0.74162   0.78455   0.78752   0.81065
 Alpha virt. eigenvalues --    0.82983   0.84455   0.86937   0.89564   0.89865
 Alpha virt. eigenvalues --    0.90464   0.92626   0.94045   0.95062   0.98595
 Alpha virt. eigenvalues --    1.00783   1.02611   1.03261   1.04703   1.05313
 Alpha virt. eigenvalues --    1.07863   1.09930   1.12724   1.14243   1.15239
 Alpha virt. eigenvalues --    1.25019   1.25504   1.26822   1.31259   1.31917
 Alpha virt. eigenvalues --    1.36146   1.37942   1.40074   1.44872   1.47375
 Alpha virt. eigenvalues --    1.49948   1.54089   1.55644   1.60854   1.62632
 Alpha virt. eigenvalues --    1.64431   1.66948   1.69581   1.71159   1.71807
 Alpha virt. eigenvalues --    1.74974   1.77863   1.78443   1.81227   1.84031
 Alpha virt. eigenvalues --    1.91229   1.92743   2.02169   2.04631   2.08216
 Alpha virt. eigenvalues --    2.16393   2.18365   2.23729   2.27556   2.36060
 Alpha virt. eigenvalues --    2.46525   2.47921   2.55472   2.57326   2.66998
 Alpha virt. eigenvalues --    2.67531   2.78325   2.83496   2.87327   2.91809
 Alpha virt. eigenvalues --    2.93177   2.96820   2.97229   2.97295   2.97388
 Alpha virt. eigenvalues --    2.98030   2.98220   3.01128   3.02671   3.04112
 Alpha virt. eigenvalues --    3.04212   3.08032   3.14855   3.15840   3.19362
 Alpha virt. eigenvalues --    3.20423   3.22041   3.22283   3.23708   3.25763
 Alpha virt. eigenvalues --    3.26591   3.32231   3.33978   3.38666   3.41588
 Alpha virt. eigenvalues --    3.54096   3.60541   3.61512   3.62006   3.67116
 Alpha virt. eigenvalues --    3.81456   3.87901   3.97518   4.06086   4.13061
 Alpha virt. eigenvalues --    4.33099   4.94781   4.98715   5.00704   5.01176
 Alpha virt. eigenvalues --    5.02324   5.04994   5.05821   5.06842   5.08574
 Alpha virt. eigenvalues --    5.10190   5.21347   5.22503   5.31674   5.33269
 Alpha virt. eigenvalues --    5.43554   5.58346   5.65495   5.77298   7.25251
 Alpha virt. eigenvalues --   14.10197  14.21662  14.27196  23.72919  23.91390
 Alpha virt. eigenvalues --   24.26852  49.96964  49.97514  49.99970  50.01400
 Alpha virt. eigenvalues --   50.09497  50.14288 163.44333
          Condensed to atoms (all electrons):
               1          2          3          4          5          6
     1  P   12.055951   0.513719   0.537655   0.516393   0.253560  -0.045103
     2  O    0.513719   8.527909  -0.043479  -0.046471  -0.040950  -0.000769
     3  O    0.537655  -0.043479   8.501945  -0.043702  -0.045736  -0.000342
     4  O    0.516393  -0.046471  -0.043702   8.524815  -0.041831  -0.001477
     5  O    0.253560  -0.040950  -0.045736  -0.041831   8.466409   0.186596
     6  C   -0.045103  -0.000769  -0.000342  -0.001477   0.186596   5.089865
     7  H   -0.014189  -0.003471  -0.000571   0.017767  -0.054248   0.377550
     8  H   -0.009783   0.016192  -0.000590  -0.002511  -0.038271   0.393763
     9  C    0.000607   0.000764  -0.000069  -0.000847  -0.041213   0.259832
    10  O    0.001376  -0.000001  -0.000001   0.000003   0.003101  -0.094444
    11  C    0.000014  -0.000009   0.000001  -0.000024  -0.002178  -0.080615
    12  O   -0.000004  -0.000000  -0.000000   0.000000  -0.000006   0.004398
    13  H   -0.000030   0.000000  -0.000000   0.000000  -0.000046   0.005598
    14  H    0.000033  -0.000061   0.000001   0.000003   0.000265  -0.003301
               7          8          9         10         11         12
     1  P   -0.014189  -0.009783   0.000607   0.001376   0.000014  -0.000004
     2  O   -0.003471   0.016192   0.000764  -0.000001  -0.000009  -0.000000
     3  O   -0.000571  -0.000590  -0.000069  -0.000001   0.000001  -0.000000
     4  O    0.017767  -0.002511  -0.000847   0.000003  -0.000024   0.000000
     5  O   -0.054248  -0.038271  -0.041213   0.003101  -0.002178  -0.000006
     6  C    0.377550   0.393763   0.259832  -0.094444  -0.080615   0.004398
     7  H    0.633793  -0.040442  -0.041319   0.008551  -0.001070  -0.000053
     8  H   -0.040442   0.589176  -0.054589   0.004772   0.011976  -0.000178
     9  C   -0.041319  -0.054589   4.914789   0.537646   0.441516  -0.062270
    10  O    0.008551   0.004772   0.537646   8.412538  -0.144045  -0.009221
    11  C   -0.001070   0.011976   0.441516  -0.144045   5.391125   0.224961
    12  O   -0.000053  -0.000178  -0.062270  -0.009221   0.224961   8.064701
    13  H   -0.000257  -0.000578  -0.000029   0.046790  -0.084824   0.324533
    14  H   -0.000279  -0.000224  -0.029498   0.004128   0.393336  -0.028497
              13         14
     1  P   -0.000030   0.000033
     2  O    0.000000  -0.000061
     3  O   -0.000000   0.000001
     4  O    0.000000   0.000003
     5  O   -0.000046   0.000265
     6  C    0.005598  -0.003301
     7  H   -0.000257  -0.000279
     8  H   -0.000578  -0.000224
     9  C   -0.000029  -0.029498
    10  O    0.046790   0.004128
    11  C   -0.084824   0.393336
    12  O    0.324533  -0.028497
    13  H    0.428658   0.007149
    14  H    0.007149   0.516668
 Mulliken charges:
               1
     1  P    1.189803
     2  O   -0.923371
     3  O   -0.905112
     4  O   -0.922118
     5  O   -0.645451
     6  C   -0.091549
     7  H    0.118237
     8  H    0.131288
     9  C    0.074680
    10  O   -0.771194
    11  C   -0.150164
    12  O   -0.518364
    13  H    0.273036
    14  H    0.140279
 Sum of Mulliken charges =  -3.00000
 Mulliken charges with hydrogens summed into heavy atoms:
               1
     1  P    1.189803
     2  O   -0.923371
     3  O   -0.905112
     4  O   -0.922118
     5  O   -0.645451
     6  C    0.157976
     9  C    0.074680
    10  O   -0.771194
    11  C   -0.009885
    12  O   -0.245328
 Electronic spatial extent (au):  <R**2>=           2263.1793
 Charge=             -3.0000 electrons
 Dipole moment (field-independent basis, Debye):
    X=             10.1965    Y=             -3.6267    Z=             -1.6177  Tot=             10.9425
 Quadrupole moment (field-independent basis, Debye-Ang):
   XX=           -163.6228   YY=            -90.9067   ZZ=            -85.1568
   XY=             -4.6134   XZ=              0.9291   YZ=              1.1180
 Traceless Quadrupole moment (field-independent basis, Debye-Ang):
   XX=            -50.3940   YY=             22.3220   ZZ=             28.0720
   XY=             -4.6134   XZ=              0.9291   YZ=              1.1180
 Octapole moment (field-independent basis, Debye-Ang**2):
  XXX=              8.9663  YYY=             -0.8903  ZZZ=              0.9104  XYY=             19.4640
  XXY=              6.5627  XXZ=            -14.6886  XZZ=             32.4615  YZZ=             -7.2693
  YYZ=              2.6615  XYZ=              4.8769
 Hexadecapole moment (field-independent basis, Debye-Ang**3):
 XXXX=          -3222.4423 YYYY=           -378.8698 ZZZZ=           -261.3293 XXXY=            121.3064
 XXXZ=             23.1406 YYYX=            -66.8801 YYYZ=              2.0662 ZZZX=              9.4450
 ZZZY=             -0.0372 XXYY=           -549.6073 XXZZ=           -536.8980 YYZZ=           -103.7718
 XXYZ=             10.0491 YYXZ=              0.7431 ZZXY=             28.7942
 N-N= 6.360742002017D+02 E-N=-3.471512486332D+03  KE= 9.080096605709D+02
 1\1\NSC-N1912\FOpt\RM062X\6-311G(d,p)\C3H4O6P1(3-)\X_GABOA\28-Feb-2023
 \0\\#M062X/6-311G** scrf=smd opt\\remark line goes here\\-3,1\P,22.462
 926333,42.2906867866,16.9945026029\O,21.818400722,40.9481200212,16.641
 2894413\O,23.1824822023,42.3076084531,18.3398104595\O,21.5348336214,43
 .4852495658,16.762809967\O,23.7286252056,42.4793415101,15.9221341183\C
 ,23.3970494488,42.5157228931,14.5316582859\H,22.6443869212,43.29859178
 31,14.3698312923\H,22.9725421614,41.5534678564,14.2226920554\C,24.6298
 867305,42.842504656,13.7320578235\O,25.2450753067,43.9803458564,13.960
 8503563\C,25.0397314609,41.960342763,12.7945293954\O,26.1614861627,42.
 2763017647,12.008759437\H,26.4251838835,43.1439800189,12.3517915255\H,
 24.58738984,41.0067360714,12.5652832398\\Version=ES64L-G09RevE.01\Stat
 e=1-A\HF=-909.8638217\RMSD=4.517e-09\RMSF=2.293e-05\Dipole=1.4163295,-
 0.7749351,-3.9909301\Quadrupole=0.6487713,16.0229448,-16.6717162,-4.90
 94318,27.457254,4.9762914\PG=C01 [X(C3H4O6P1)]\\@


 Statistics are no substitute for judgment.
                            -- Henry Clay
 Job cpu time:       0 days  0 hours 48 minutes 57.7 seconds.
 File lengths (MBytes):  RWF=     75 Int=      0 D2E=      0 Chk=     12 Scr=      1
 Normal termination of Gaussian 09 at Tue Feb 28 14:44:58 2023.
