 Entering Gaussian System, Link 0=/software/sse/easybuild/prefix/software/Gaussian/09.E.01-avx-nsc1-bdist/g09/g09.orig
 Input=sub-_esp.wrap
 Output=sub-_esp.log
 Initial command:
 /software/sse/easybuild/prefix/software/Gaussian/09.E.01-avx-nsc1-bdist/g09/l1.exe "/scratch/local/Gau-77898.inp" -scrdir="/scratch/local/"
 Entering Link 1 = /software/sse/easybuild/prefix/software/Gaussian/09.E.01-avx-nsc1-bdist/g09/l1.exe PID=     77899.
  
 Copyright (c) 1988,1990,1992,1993,1995,1998,2003,2009,2015,
            Gaussian, Inc.  All Rights Reserved.
  
 This is part of the Gaussian(R) 09 program.  It is based on
 the Gaussian(R) 03 system (copyright 2003, Gaussian, Inc.),
 the Gaussian(R) 98 system (copyright 1998, Gaussian, Inc.),
 the Gaussian(R) 94 system (copyright 1995, Gaussian, Inc.),
 the Gaussian 92(TM) system (copyright 1992, Gaussian, Inc.),
 the Gaussian 90(TM) system (copyright 1990, Gaussian, Inc.),
 the Gaussian 88(TM) system (copyright 1988, Gaussian, Inc.),
 the Gaussian 86(TM) system (copyright 1986, Carnegie Mellon
 University), and the Gaussian 82(TM) system (copyright 1983,
 Carnegie Mellon University). Gaussian is a federally registered
 trademark of Gaussian, Inc.
  
 This software contains proprietary and confidential information,
 including trade secrets, belonging to Gaussian, Inc.
  
 This software is provided under written license and may be
 used, copied, transmitted, or stored only in accord with that
 written license.
  
 The following legend is applicable only to US Government
 contracts under FAR:
  
                    RESTRICTED RIGHTS LEGEND
  
 Use, reproduction and disclosure by the US Government is
 subject to restrictions as set forth in subparagraphs (a)
 and (c) of the Commercial Computer Software - Restricted
 Rights clause in FAR 52.227-19.
  
 Gaussian, Inc.
 340 Quinnipiac St., Bldg. 40, Wallingford CT 06492
  
  
 ---------------------------------------------------------------
 Warning -- This program may not be used in any manner that
 competes with the business of Gaussian, Inc. or will provide
 assistance to any competitor of Gaussian, Inc.  The licensee
 of this program is prohibited from giving any competitor of
 Gaussian, Inc. access to this program.  By using this program,
 the user acknowledges that Gaussian, Inc. is engaged in the
 business of creating and licensing software in the field of
 computational chemistry and represents and warrants to the
 licensee that it is not a competitor of Gaussian, Inc. and that
 it will not use this program in any manner prohibited above.
 ---------------------------------------------------------------
  

 Cite this work as:
 Gaussian 09, Revision E.01,
 M. J. Frisch, G. W. Trucks, H. B. Schlegel, G. E. Scuseria, 
 M. A. Robb, J. R. Cheeseman, G. Scalmani, V. Barone, B. Mennucci, 
 G. A. Petersson, H. Nakatsuji, M. Caricato, X. Li, H. P. Hratchian, 
 A. F. Izmaylov, J. Bloino, G. Zheng, J. L. Sonnenberg, M. Hada, 
 M. Ehara, K. Toyota, R. Fukuda, J. Hasegawa, M. Ishida, T. Nakajima, 
 Y. Honda, O. Kitao, H. Nakai, T. Vreven, J. A. Montgomery, Jr., 
 J. E. Peralta, F. Ogliaro, M. Bearpark, J. J. Heyd, E. Brothers, 
 K. N. Kudin, V. N. Staroverov, T. Keith, R. Kobayashi, J. Normand, 
 K. Raghavachari, A. Rendell, J. C. Burant, S. S. Iyengar, J. Tomasi, 
 M. Cossi, N. Rega, J. M. Millam, M. Klene, J. E. Knox, J. B. Cross, 
 V. Bakken, C. Adamo, J. Jaramillo, R. Gomperts, R. E. Stratmann, 
 O. Yazyev, A. J. Austin, R. Cammi, C. Pomelli, J. W. Ochterski, 
 R. L. Martin, K. Morokuma, V. G. Zakrzewski, G. A. Voth, 
 P. Salvador, J. J. Dannenberg, S. Dapprich, A. D. Daniels, 
 O. Farkas, J. B. Foresman, J. V. Ortiz, J. Cioslowski, 
 and D. J. Fox, Gaussian, Inc., Wallingford CT, 2013.
 
 ******************************************
 Gaussian 09:  ES64L-G09RevE.01 30-Nov-2015
                28-Feb-2023 
 ******************************************
 %nproc=8
 Will use up to    8 processors via shared memory.
 %chk=sub-_esp
 ----------------------------------------------------------------------
 #HF/6-31G* scrf=smd SCF=tight Test Pop=MK iop(6/33=2) iop(6/42=6) # io
 p(6/50=1)
 ----------------------------------------------------------------------
 1/38=1/1;
 2/12=2,17=6,18=5,40=1/2;
 3/5=1,6=6,7=1,11=9,16=1,25=1,30=1,70=32201,72=1/1,2,3;
 4//1;
 5/5=2,32=2,38=5/2;
 6/7=2,8=2,9=2,10=2,15=8,20=1,28=1,33=2,42=6,50=1/1,2;
 99/5=1,9=1/99;
 ------------
 RESP charges
 ------------
 Symbolic Z-matrix:
 Charge = -3 Multiplicity = 1
 P                    -2.01139  -0.03863   0.06463 
 O                    -2.1859   -1.55478  -0.05151 
 O                    -2.68531   0.57968   1.28587 
 O                    -2.28374   0.70242  -1.24636 
 O                    -0.39421   0.20476   0.40086 
 C                     0.54489  -0.26153  -0.57143 
 H                     0.29074   0.17788  -1.54503 
 H                     0.48685  -1.353    -0.65466 
 C                     1.93052   0.17604  -0.17825 
 O                     2.17571   1.46142  -0.06346 
 C                     2.87203  -0.77272   0.01813 
 O                     4.1813   -0.37438   0.33867 
 H                     4.11224   0.59258   0.35627 
 H                     2.73367  -1.84176  -0.04923 
 
                          Input orientation:                          
 ---------------------------------------------------------------------
 Center     Atomic      Atomic             Coordinates (Angstroms)
 Number     Number       Type             X           Y           Z
 ---------------------------------------------------------------------
      1         15           0       -2.011391   -0.038630    0.064628
      2          8           0       -2.185902   -1.554782   -0.051506
      3          8           0       -2.685308    0.579679    1.285869
      4          8           0       -2.283739    0.702418   -1.246362
      5          8           0       -0.394213    0.204762    0.400860
      6          6           0        0.544890   -0.261528   -0.571430
      7          1           0        0.290741    0.177876   -1.545034
      8          1           0        0.486847   -1.352997   -0.654662
      9          6           0        1.930523    0.176042   -0.178253
     10          8           0        2.175707    1.461419   -0.063463
     11          6           0        2.872028   -0.772717    0.018134
     12          8           0        4.181295   -0.374376    0.338668
     13          1           0        4.112242    0.592575    0.356274
     14          1           0        2.733671   -1.841759   -0.049232
 ---------------------------------------------------------------------
                    Distance matrix (angstroms):
                    1          2          3          4          5
     1  P    0.000000
     2  O    1.530574   0.000000
     3  O    1.525746   2.567859   0.000000
     4  O    1.530366   2.555818   2.566811   0.000000
     5  O    1.669598   2.551623   2.484536   2.555643   0.000000
     6  C    2.643639   3.065950   3.819865   3.063636   1.429926
     7  H    2.817392   3.371423   4.127024   2.644295   2.063102
     8  H    2.913097   2.747381   4.190879   3.500141   2.077741
     9  C    3.955219   4.467300   4.859267   4.379262   2.395954
    10  O    4.449533   5.302947   5.121292   4.675681   2.898150
    11  C    4.938504   5.118509   5.858337   5.509710   3.430783
    12  O    6.207832   6.487433   6.996974   6.743031   4.612433
    13  H    6.162983   6.666637   6.860831   6.594625   4.523331
    14  H    5.077386   4.927937   6.083682   5.751553   3.764902
                    6          7          8          9         10
     6  C    0.000000
     7  H    1.097986   0.000000
     8  H    1.096176   1.781795   0.000000
     9  C    1.505335   2.134708   2.156183   0.000000
    10  O    2.426137   2.719491   3.335071   1.313578   0.000000
    11  C    2.454480   3.163884   2.545283   1.350979   2.341556
    12  O    3.750261   4.357720   3.948842   2.374056   2.748497
    13  H    3.783666   4.288452   4.236830   2.284539   2.163617
    14  H    2.749651   3.504890   2.377741   2.175595   3.350002
                   11         12         13         14
    11  C    0.000000
    12  O    1.405560   0.000000
    13  H    1.875231   0.969573   0.000000
    14  H    1.080061   2.097450   2.826814   0.000000
 Stoichiometry    C3H4O6P(3-)
 Framework group  C1[X(C3H4O6P)]
 Deg. of freedom    36
 Full point group                 C1      NOp   1
 Largest Abelian subgroup         C1      NOp   1
 Largest concise Abelian subgroup C1      NOp   1
                         Standard orientation:                         
 ---------------------------------------------------------------------
 Center     Atomic      Atomic             Coordinates (Angstroms)
 Number     Number       Type             X           Y           Z
 ---------------------------------------------------------------------
      1         15           0       -2.011391    0.038630   -0.064628
      2          8           0       -2.185902    1.554782    0.051506
      3          8           0       -2.685308   -0.579679   -1.285869
      4          8           0       -2.283739   -0.702418    1.246362
      5          8           0       -0.394213   -0.204762   -0.400860
      6          6           0        0.544890    0.261528    0.571430
      7          1           0        0.290741   -0.177876    1.545034
      8          1           0        0.486847    1.352997    0.654662
      9          6           0        1.930523   -0.176042    0.178253
     10          8           0        2.175707   -1.461419    0.063463
     11          6           0        2.872028    0.772717   -0.018134
     12          8           0        4.181295    0.374376   -0.338668
     13          1           0        4.112242   -0.592575   -0.356274
     14          1           0        2.733671    1.841759    0.049232
 ---------------------------------------------------------------------
 Rotational constants (GHZ):      3.0408823      0.5088704      0.4892294
 Standard basis: 6-31G(d) (6D, 7F)
 There are   162 symmetry adapted cartesian basis functions of A   symmetry.
 There are   162 symmetry adapted basis functions of A   symmetry.
   162 basis functions,   320 primitive gaussians,   162 cartesian basis functions
    44 alpha electrons       44 beta electrons
       nuclear repulsion energy       636.0627432963 Hartrees.
 NAtoms=   14 NActive=   14 NUniq=   14 SFac= 1.00D+00 NAtFMM=   60 NAOKFM=F Big=F
 Integral buffers will be    131072 words long.
 Raffenetti 1 integral format.
 Two-electron integral symmetry is turned on.
 ------------------------------------------------------------------------------
 Polarizable Continuum Model (PCM)
 =================================
 Model                : PCM (using non-symmetric T matrix).
 Atomic radii         : SMD-Coulomb.
 Polarization charges : Total charges.
 Charge compensation  : None.
 Solution method      : On-the-fly selection.
 Cavity type          : VdW (van der Waals Surface) (Alpha=1.000).
 Cavity algorithm     : GePol (No added spheres)
                        Default sphere list used, NSphG=   14.
                        Lebedev-Laikov grids with approx.  5.0 points / Ang**2.
                        Smoothing algorithm: York/Karplus (Gamma=1.0000).
                        Polarization charges: spherical gaussians, with
                                              point-specific exponents (IZeta= 3).
                        Self-potential: point-specific (ISelfS= 7).
                        Self-field    : sphere-specific E.n sum rule (ISelfD= 2).
 Solvent              : Water, Eps=  78.355300 Eps(inf)=   1.777849
 ------------------------------------------------------------------------------
 Spheres list:
 ISph  on   Nord     Re0    Alpha      Xe            Ye            Ze
    1   P      1    2.1200  1.000     -2.011391      0.038630     -0.064628
    2   O      2    1.5200  1.000     -2.185902      1.554782      0.051506
    3   O      3    1.5200  1.000     -2.685308     -0.579679     -1.285869
    4   O      4    1.5200  1.000     -2.283739     -0.702418      1.246362
    5   O      5    1.5200  1.000     -0.394213     -0.204762     -0.400860
    6   C      6    1.8500  1.000      0.544890      0.261528      0.571430
    7   H      7    1.2000  1.000      0.290741     -0.177876      1.545034
    8   H      8    1.2000  1.000      0.486847      1.352997      0.654662
    9   C      9    1.8500  1.000      1.930523     -0.176042      0.178253
   10   O     10    1.5200  1.000      2.175707     -1.461419      0.063463
   11   C     11    1.8500  1.000      2.872028      0.772717     -0.018134
   12   O     12    1.5200  1.000      4.181295      0.374376     -0.338668
   13   H     13    1.2000  1.000      4.112242     -0.592575     -0.356274
   14   H     14    1.2000  1.000      2.733671      1.841759      0.049232
 ------------------------------------------------------------------------------
 ------------------------------------------------------------------------------
 Atomic radii for non-electrostatic terms: SMD-CDS.
 ------------------------------------------------------------------------------
 Nuclear repulsion after PCM non-electrostatic terms =      636.0742024783 Hartrees.
 One-electron integrals computed using PRISM.
 NBasis=   162 RedAO= T EigKep=  2.48D-03  NBF=   162
 NBsUse=   162 1.00D-06 EigRej= -1.00D+00 NBFU=   162
 ExpMin= 9.98D-02 ExpMax= 1.94D+04 ExpMxC= 2.91D+03 IAcc=2 IRadAn=         4 AccDes= 0.00D+00
 Harris functional with IExCor=  205 and IRadAn=       4 diagonalized for initial guess.
 HarFok:  IExCor=  205 AccDes= 0.00D+00 IRadAn=         4 IDoV= 1 UseB2=F ITyADJ=14
 ICtDFT=  3500011 ScaDFX=  1.000000  1.000000  1.000000  1.000000
 FoFCou: FMM=F IPFlag=           0 FMFlag=      100000 FMFlg1=           0
         NFxFlg=           0 DoJE=T BraDBF=F KetDBF=T FulRan=T
         wScrn=  0.000000 ICntrl=     500 IOpCl=  0 I1Cent=   200000004 NGrid=           0
         NMat0=    1 NMatS0=      1 NMatT0=    0 NMatD0=    1 NMtDS0=    0 NMtDT0=    0
 Petite list used in FoFCou.
 Keep R1 ints in memory in canonical form, NReq=91712550.
 Requested convergence on RMS density matrix=1.00D-08 within 128 cycles.
 Requested convergence on MAX density matrix=1.00D-06.
 Requested convergence on             energy=1.00D-06.
 No special actions if energy rises.
 Inv3:  Mode=1 IEnd=     3844272.
 Iteration    1 A*A^-1 deviation from unit magnitude is 4.44D-15 for   1132.
 Iteration    1 A*A^-1 deviation from orthogonality  is 2.18D-15 for    778    677.
 Iteration    1 A^-1*A deviation from unit magnitude is 4.44D-15 for   1132.
 Iteration    1 A^-1*A deviation from orthogonality  is 2.22D-08 for   1122   1023.
 Iteration    2 A*A^-1 deviation from unit magnitude is 2.00D-15 for    536.
 Iteration    2 A*A^-1 deviation from orthogonality  is 1.51D-15 for    964    423.
 Iteration    2 A^-1*A deviation from unit magnitude is 9.99D-16 for    127.
 Iteration    2 A^-1*A deviation from orthogonality  is 2.97D-16 for   1121   1108.
 Error on total polarization charges =  0.04735
 SCF Done:  E(RHF) =  -906.244002814     A.U. after   13 cycles
            NFock= 13  Conv=0.90D-08     -V/T= 2.0022
 SMD-CDS (non-electrostatic) energy       (kcal/mol) =       7.19
 (included in total energy above)

 **********************************************************************

            Population analysis using the SCF density.

 **********************************************************************

 Orbital symmetries:
 BldTbl:  Degeneracy threshold= 1.00D-02
       Occupied  (A) (A) (A) (A) (A) (A) (A) (A) (A) (A) (A) (A)
                 (A) (A) (A) (A) (A) (A) (A) (A) (A) (A) (A) (A)
                 (A) (A) (A) (A) (A) (A) (A) (A) (A) (A) (A) (A)
                 (A) (A) (A) (A) (A) (A) (A) (A)
       Virtual   (A) (A) (A) (A) (A) (A) (A) (A) (A) (A) (A) (A)
                 (A) (A) (A) (A) (A) (A) (A) (A) (A) (A) (A) (A)
                 (A) (A) (A) (A) (A) (A) (A) (A) (A) (A) (A) (A)
                 (A) (A) (A) (A) (A) (A) (A) (A) (A) (A) (A) (A)
                 (A) (A) (A) (A) (A) (A) (A) (A) (A) (A) (A) (A)
                 (A) (A) (A) (A) (A) (A) (A) (A) (A) (A) (A) (A)
                 (A) (A) (A) (A) (A) (A) (A) (A) (A) (A) (A) (A)
                 (A) (A) (A) (A) (A) (A) (A) (A) (A) (A) (A) (A)
                 (A) (A) (A) (A) (A) (A) (A) (A) (A) (A) (A) (A)
                 (A) (A) (A) (A) (A) (A) (A) (A) (A) (A)
 The electronic state is 1-A.
 Alpha  occ. eigenvalues --  -80.01434 -20.54913 -20.53596 -20.45958 -20.45918
 Alpha  occ. eigenvalues --  -20.45900 -20.45227 -11.25268 -11.24053 -11.21914
 Alpha  occ. eigenvalues --   -7.53500  -5.43423  -5.43304  -5.43280  -1.35265
 Alpha  occ. eigenvalues --   -1.34560  -1.26975  -1.24893  -1.20469  -1.20251
 Alpha  occ. eigenvalues --   -0.97985  -0.87553  -0.73177  -0.70468  -0.65141
 Alpha  occ. eigenvalues --   -0.62405  -0.60683  -0.58665  -0.55691  -0.54434
 Alpha  occ. eigenvalues --   -0.53795  -0.52070  -0.50891  -0.49104  -0.46263
 Alpha  occ. eigenvalues --   -0.44202  -0.44035  -0.43210  -0.42949  -0.39871
 Alpha  occ. eigenvalues --   -0.38924  -0.36729  -0.36557  -0.25342
 Alpha virt. eigenvalues --    0.24549   0.28370   0.29547   0.31310   0.32537
 Alpha virt. eigenvalues --    0.35599   0.36264   0.39441   0.40917   0.44095
 Alpha virt. eigenvalues --    0.46303   0.50675   0.55551   0.58552   0.59936
 Alpha virt. eigenvalues --    0.64526   0.64691   0.67879   0.77480   0.80652
 Alpha virt. eigenvalues --    0.83927   0.85795   0.90553   0.93059   0.95308
 Alpha virt. eigenvalues --    0.96681   0.99292   1.01927   1.06065   1.07229
 Alpha virt. eigenvalues --    1.08282   1.10346   1.12527   1.13405   1.16233
 Alpha virt. eigenvalues --    1.18852   1.20821   1.23813   1.25267   1.25949
 Alpha virt. eigenvalues --    1.30251   1.33544   1.35124   1.35209   1.36078
 Alpha virt. eigenvalues --    1.36776   1.37852   1.39215   1.42536   1.43368
 Alpha virt. eigenvalues --    1.46607   1.48933   1.51925   1.53678   1.57709
 Alpha virt. eigenvalues --    1.60622   1.62620   1.66852   1.68405   1.70745
 Alpha virt. eigenvalues --    1.78078   1.81885   1.85369   1.88326   1.90324
 Alpha virt. eigenvalues --    1.97143   2.04320   2.06974   2.09247   2.13336
 Alpha virt. eigenvalues --    2.14058   2.15732   2.16245   2.16907   2.18065
 Alpha virt. eigenvalues --    2.18257   2.18697   2.19084   2.21804   2.24106
 Alpha virt. eigenvalues --    2.27544   2.30827   2.35765   2.36384   2.42253
 Alpha virt. eigenvalues --    2.46729   2.49663   2.50713   2.56048   2.64729
 Alpha virt. eigenvalues --    2.66008   2.67781   2.68505   2.74949   2.78787
 Alpha virt. eigenvalues --    2.80194   2.84358   2.92477   2.98637   3.03234
 Alpha virt. eigenvalues --    3.11020   3.12767   3.21168   3.22863   3.25336
 Alpha virt. eigenvalues --    3.30953   3.39432   3.56315   3.93931   4.17042
 Alpha virt. eigenvalues --    4.17825   4.23106   4.35805   4.42669   4.50316
 Alpha virt. eigenvalues --    4.64798   4.77173   5.03923
          Condensed to atoms (all electrons):
               1          2          3          4          5          6
     1  P   11.780144   0.510074   0.525799   0.510077   0.239309  -0.018806
     2  O    0.510074   8.612525  -0.042553  -0.044533  -0.037794  -0.001541
     3  O    0.525799  -0.042553   8.586212  -0.042674  -0.044916   0.000029
     4  O    0.510077  -0.044533  -0.042674   8.610911  -0.037538  -0.003937
     5  O    0.239309  -0.037794  -0.044916  -0.037538   8.655174   0.151056
     6  C   -0.018806  -0.001541   0.000029  -0.003937   0.151056   4.953168
     7  H   -0.003970  -0.000816  -0.000081   0.009236  -0.049084   0.385710
     8  H   -0.001652   0.006769  -0.000064  -0.000358  -0.037364   0.385804
     9  C   -0.000854   0.000230  -0.000054  -0.000157  -0.039673   0.348084
    10  O    0.000457  -0.000001  -0.000000   0.000003   0.003444  -0.072901
    11  C   -0.000078  -0.000001  -0.000000  -0.000005  -0.001297  -0.068412
    12  O    0.000001  -0.000000  -0.000000   0.000000  -0.000006   0.002700
    13  H   -0.000001   0.000000  -0.000000   0.000000  -0.000012   0.001672
    14  H   -0.000018  -0.000001  -0.000000   0.000000   0.000032   0.000835
               7          8          9         10         11         12
     1  P   -0.003970  -0.001652  -0.000854   0.000457  -0.000078   0.000001
     2  O   -0.000816   0.006769   0.000230  -0.000001  -0.000001  -0.000000
     3  O   -0.000081  -0.000064  -0.000054  -0.000000  -0.000000  -0.000000
     4  O    0.009236  -0.000358  -0.000157   0.000003  -0.000005   0.000000
     5  O   -0.049084  -0.037364  -0.039673   0.003444  -0.001297  -0.000006
     6  C    0.385710   0.385804   0.348084  -0.072901  -0.068412   0.002700
     7  H    0.588298  -0.037345  -0.043316   0.002293  -0.001019  -0.000029
     8  H   -0.037345   0.558848  -0.047621   0.002936   0.007750   0.000006
     9  C   -0.043316  -0.047621   4.451872   0.383875   0.625333  -0.044828
    10  O    0.002293   0.002936   0.383875   8.752578  -0.090610  -0.012693
    11  C   -0.001019   0.007750   0.625333  -0.090610   5.141439   0.181399
    12  O   -0.000029   0.000006  -0.044828  -0.012693   0.181399   8.497042
    13  H   -0.000024  -0.000090  -0.002344   0.036579  -0.046815   0.251471
    14  H   -0.000123   0.000698  -0.029635   0.002474   0.384916  -0.033085
              13         14
     1  P   -0.000001  -0.000018
     2  O    0.000000  -0.000001
     3  O   -0.000000  -0.000000
     4  O    0.000000   0.000000
     5  O   -0.000012   0.000032
     6  C    0.001672   0.000835
     7  H   -0.000024  -0.000123
     8  H   -0.000090   0.000698
     9  C   -0.002344  -0.029635
    10  O    0.036579   0.002474
    11  C   -0.046815   0.384916
    12  O    0.251471  -0.033085
    13  H    0.285885   0.004121
    14  H    0.004121   0.477025
 Mulliken charges:
               1
     1  P    1.459519
     2  O   -1.002358
     3  O   -0.981697
     4  O   -1.001025
     5  O   -0.801330
     6  C   -0.063461
     7  H    0.150270
     8  H    0.161683
     9  C    0.399088
    10  O   -1.008431
    11  C   -0.132599
    12  O   -0.841979
    13  H    0.469559
    14  H    0.192761
 Sum of Mulliken charges =  -3.00000
 Mulliken charges with hydrogens summed into heavy atoms:
               1
     1  P    1.459519
     2  O   -1.002358
     3  O   -0.981697
     4  O   -1.001025
     5  O   -0.801330
     6  C    0.248492
     9  C    0.399088
    10  O   -1.008431
    11  C    0.060162
    12  O   -0.372420
 DipInt: DoE/N= T F RetVal/Mat= T F Init=T NMatP=  1 IDeriv=0 Min/MaxMlt=  0  4
 Entering OneElI...
 OneElI was handed   134148010 working-precision words.
 Multipole integrals L=0 to 4 MinM= 0 MaxM= 0.
 Requested accuracy = 0.1000D-12
 ShPair: Thresh= 1.00D-13 NBox=     0 BxSize= 0.00D+00 RnKept= 1.32D+01
         NSMCal=                 1225 NSMKep=                1065
 PrsmSu:  NPrtUS=   1 ThrOK=F IAlg=1 NPAlg=1 LenDen=           0.
 Prism:   IPart=     0 DynPar=F LinDyn=F Incr=          10.
 PRISM was handed   134034130 working-precision words and  1065 shell-pairs
 IPart=  0 NShTot=        1065 NBatch=          53 AvBLen=        20.1
 PrSmSu:  NxtVal=             11.
 Electronic moments (au):
        -88.00000000          3.90811649          1.56619958          0.72108322
      -1820.84565346       -260.87753180       -180.16119470          3.79264012
         -0.40934212          0.88035944      -3295.62383647        -81.15232900
        -18.88606239        -13.65540420       -242.92091687        500.30930863
        434.64891336        116.81927998        -34.10373550         48.51457092
     -66193.12597807      -2292.27427083      -1270.37148573      -3138.71915161
       1570.60755430       1231.96210271          0.61677973       -160.57543188
         12.68253162      -5198.17184471      -3702.09344708       -415.38251756
        138.05437896         33.39359396       -610.27410961
 Electronic spatial extent (au):  <R**2>=           2261.8844
 DipInt: DoE/N= F T RetVal/Mat= T F Init=T NMatP=  1 IDeriv=0 Min/MaxMlt=  0  4
 Nuclear    moments (au):
         85.00000000         -0.00000000         -0.00000000         -0.00000000
       1698.53917182        193.99271122        118.09893692          0.00000000
          0.00001083         -0.00002306       3288.46381394         84.16716334
         18.42366672         38.25315609        233.58464530       -478.15994025
       -390.06112142       -106.37756469         30.49902317        -41.20867638
      57647.45237864       1318.81752805        612.53498525       2802.85282808
      -1614.51484300      -1050.57808936          5.06631644        139.18827046
        -12.68659584       3763.12817694       2304.67318581        152.17692086
       -107.84698447        -35.16811409        535.18202566
 Total      moments (au):
         -3.00000000          3.90811649          1.56619958          0.72108322
       -122.30648164        -66.88482058        -62.06225779          3.79264012
         -0.40933129          0.88033638         -7.16002253          3.01483433
         -0.46239567         24.59775190         -9.33627157         22.14936838
         44.58779194         10.44171530         -3.60471233          7.30589454
      -8545.67359942       -973.45674279       -657.83650049       -335.86632353
        -43.90728870        181.38401336          5.68309617        -21.38716141
         -0.00406422      -1435.04366777      -1397.42026127       -263.20559670
         30.20739449         -1.77452013        -75.09208396
 Traceless Quadrup. (au):
        -38.55529497         16.86636609         21.68892888          3.79264012
         -0.40933129          0.88033638
 Charge=             -3.0000 electrons
 Dipole moment (field-independent basis, Debye):
    X=              9.9334    Y=              3.9809    Z=              1.8328  Tot=             10.8572
 Quadrupole moment (field-independent basis, Debye-Ang):
   XX=           -164.5064   YY=            -89.9624   ZZ=            -83.4759
   XY=              5.1012   XZ=             -0.5506   YZ=              1.1841
 Traceless Quadrupole moment (field-independent basis, Debye-Ang):
   XX=            -51.8582   YY=             22.6858   ZZ=             29.1724
   XY=              5.1012   XZ=             -0.5506   YZ=              1.1841
 Octapole moment (field-independent basis, Debye-Ang**2):
  XXX=             -5.0962  YYY=              2.1458  ZZZ=             -0.3291  XYY=             17.5077
  XXY=             -6.6452  XXZ=             15.7651  XZZ=             31.7359  YZZ=              7.4320
  YYZ=             -2.5657  XYZ=              5.2001
 Hexadecapole moment (field-independent basis, Debye-Ang**3):
 XXXX=          -3218.7102 YYYY=           -366.6505 ZZZZ=           -247.7728 XXXY=           -126.5034
 XXXZ=            -16.5376 YYYX=             68.3179 YYYZ=              2.1405 ZZZX=             -8.0554
 ZZZY=             -0.0015 XXYY=           -540.5062 XXZZ=           -526.3354 YYZZ=            -99.1358
 XXYZ=             11.3776 YYXZ=             -0.6684 ZZXY=            -28.2833
 N-N= 6.360742024783D+02 E-N=-3.467136779247D+03  KE= 9.042805704318D+02
 Entering OneElI...
 OneElI was handed   134160701 working-precision words.
 Calculate electrostatic properties
    NBasis =   162  MinDer = 0  MaxDer = 0
    NGrid  =    14  NMatD  =   1
 Requested accuracy = 0.1000D-12
 ShPair: Thresh= 1.00D-13 NBox=     0 BxSize= 0.00D+00 RnKept= 1.32D+01
         NSMCal=                 1225 NSMKep=                1000
 PrsmSu:  NPrtUS=   8 ThrOK=T IAlg=1 NPAlg=1 LenDen=           0.
 Prism:   IPart=     0 DynPar=F LinDyn=F Incr=          17.
 PRISM was handed    16722773 working-precision words and  1000 shell-pairs
 PRISM was handed    16722773 working-precision words and  1000 shell-pairs
 PRISM was handed    16722773 working-precision words and  1000 shell-pairs
 PRISM was handed    16722773 working-precision words and  1000 shell-pairs
 PRISM was handed    16722773 working-precision words and  1000 shell-pairs
 PRISM was handed    16722773 working-precision words and  1000 shell-pairs
 PRISM was handed    16722773 working-precision words and  1000 shell-pairs
 PRISM was handed    16722773 working-precision words and  1000 shell-pairs
 IPart=  1 NShTot=        1974 NBatch=         141 AvBLen=        14.0
 IPart=  0 NShTot=        2114 NBatch=         151 AvBLen=        14.0
 IPart=  7 NShTot=        1456 NBatch=         104 AvBLen=        14.0
 IPart=  6 NShTot=        1498 NBatch=         107 AvBLen=        14.0
 IPart=  3 NShTot=        1778 NBatch=         127 AvBLen=        14.0
 IPart=  4 NShTot=        1680 NBatch=         120 AvBLen=        14.0
 IPart=  5 NShTot=        1624 NBatch=         116 AvBLen=        14.0
 IPart=  2 NShTot=        1876 NBatch=         134 AvBLen=        14.0
 PrSmSu:  NxtVal=            137.
 --------------------------------------------------------
       Center         ----      EFG at Nuclei      ----
                      3XX-RR        3YY-RR        3ZZ-RR
 --------------------------------------------------------
     1   Atom       -0.728247      0.357259      0.370988
     2   Atom        0.379157     -0.919406      0.540249
     3   Atom        0.145564      0.286824     -0.432389
     4   Atom        0.345469      0.193364     -0.538832
     5   Atom       -1.150878      1.083149      0.067730
     6   Atom       -0.046076      0.134589     -0.088513
     7   Atom        0.121662      0.077367     -0.199029
     8   Atom        0.141839     -0.282217      0.140378
     9   Atom        0.199744      0.108907     -0.308652
    10   Atom        0.921039     -1.435262      0.514223
    11   Atom       -0.252176      0.142869      0.109307
    12   Atom       -0.579866     -0.987368      1.567234
    13   Atom        0.191488     -0.425003      0.233515
    14   Atom        0.131978     -0.312943      0.180964
 --------------------------------------------------------
                        XY            XZ            YZ
 --------------------------------------------------------
     1   Atom        0.157837      0.211115     -0.006856
     2   Atom        0.159299      0.004170     -0.103576
     3   Atom       -0.239484     -0.482900     -0.494751
     4   Atom       -0.120117      0.216875      0.627061
     5   Atom       -0.264154     -0.718305     -0.678008
     6   Atom       -0.132100     -0.276462     -0.132445
     7   Atom       -0.043106      0.078489      0.151638
     8   Atom        0.017556     -0.003162     -0.032847
     9   Atom        0.089639     -0.119701     -0.001850
    10   Atom        0.494778     -0.100104     -0.197508
    11   Atom        0.209781      0.105291     -0.048108
    12   Atom        0.667167      0.559302     -0.245563
    13   Atom       -0.009819      0.011306     -0.020956
    14   Atom        0.060367      0.016425     -0.029527
 --------------------------------------------------------


 ---------------------------------------------------------------------------------
              Nuclear Quadrupole Coupling Constant in Principal Axis System
 ---------------------------------------------------------------------------------

       Atom             a.u.   MegaHertz   Gauss  10(-4) cm-1        Axes


 ---------------------------------------------------------------------------------

 No NMR shielding tensors so no spin-rotation constants.
 Leave Link  601 at Tue Feb 28 15:58:46 2023, MaxMem=   134217728 cpu:         1.0
 FitSet:  NAtFit=    14 NAtPot=    14 NAtFrz=     0 MDM=    18 TotChg=  -3.00000
 Merz-Kollman atomic radii used.
 Atom Element Radius
    1    15    1.80
    2     8    1.40
    3     8    1.40
    4     8    1.40
    5     8    1.40
    6     6    1.50
    7     1    1.20
    8     1    1.20
    9     6    1.50
   10     8    1.40
   11     6    1.50
   12     8    1.40
   13     1    1.20
   14     1    1.20
 Generate VDW surfaces: Layer= 4 Dens= 6 Start= 1.400 Inc= 0.200

 **********************************************************************

            Electrostatic Properties Using The SCF Density

 **********************************************************************

       Atomic Center    1 is at  -2.011391  0.038630 -0.064628
       Atomic Center    2 is at  -2.185902  1.554782  0.051506
       Atomic Center    3 is at  -2.685308 -0.579679 -1.285869
       Atomic Center    4 is at  -2.283739 -0.702418  1.246362
       Atomic Center    5 is at  -0.394213 -0.204762 -0.400860
       Atomic Center    6 is at   0.544890  0.261528  0.571430
       Atomic Center    7 is at   0.290741 -0.177876  1.545034
       Atomic Center    8 is at   0.486847  1.352997  0.654662
       Atomic Center    9 is at   1.930523 -0.176042  0.178253
       Atomic Center   10 is at   2.175707 -1.461419  0.063463
       Atomic Center   11 is at   2.872028  0.772717 -0.018134
       Atomic Center   12 is at   4.181295  0.374376 -0.338668
       Atomic Center   13 is at   4.112242 -0.592575 -0.356274
       Atomic Center   14 is at   2.733671  1.841759  0.049232
      ESP Fit Center   15 is at  -1.092607  0.809581  2.151646
      ESP Fit Center   16 is at  -1.411697  1.077330  2.151646
      ESP Fit Center   17 is at  -1.803120  1.219796  2.151646
      ESP Fit Center   18 is at  -2.219662  1.219796  2.151646
      ESP Fit Center   19 is at  -2.611085  1.077330  2.151646
      ESP Fit Center   20 is at  -0.954924  1.169829  1.924006
      ESP Fit Center   21 is at  -1.299295  1.412913  1.924006
      ESP Fit Center   22 is at  -2.903986  1.303149  1.924006
      ESP Fit Center   23 is at  -3.212049  1.015438  1.924006
      ESP Fit Center   24 is at  -0.904245  1.525786  1.642122
      ESP Fit Center   25 is at  -3.560406  1.057433  1.642122
      ESP Fit Center   26 is at  -3.753604  0.672743  1.642122
      ESP Fit Center   27 is at  -3.855965  1.062452  1.313681
      ESP Fit Center   28 is at  -4.024300  0.670184  1.313681
      ESP Fit Center   29 is at  -4.110227  0.252060  1.313681
      ESP Fit Center   30 is at  -3.973479  1.253503  0.947644
      ESP Fit Center   31 is at  -4.163303  0.872285  0.947644
      ESP Fit Center   32 is at  -4.279846  0.462678  0.947644
      ESP Fit Center   33 is at  -4.319140  0.038630  0.947644
      ESP Fit Center   34 is at  -4.279846 -0.385418  0.947644
      ESP Fit Center   35 is at  -0.620662 -1.802994  0.947644
      ESP Fit Center   36 is at  -4.126995  1.260074  0.553995
      ESP Fit Center   37 is at  -4.306955  0.874147  0.553995
      ESP Fit Center   38 is at  -4.417167  0.462833  0.553995
      ESP Fit Center   39 is at  -4.454280  0.038630  0.553995
      ESP Fit Center   40 is at  -4.417167 -0.385573  0.553995
      ESP Fit Center   41 is at  -4.306955 -0.796887  0.553995
      ESP Fit Center   42 is at  -4.126995 -1.182815  0.553995
      ESP Fit Center   43 is at  -1.175874 -2.256935  0.553995
      ESP Fit Center   44 is at  -0.789947 -2.076974  0.553995
      ESP Fit Center   45 is at  -4.299844  1.073076  0.143472
      ESP Fit Center   46 is at  -4.441749  0.671446  0.143472
      ESP Fit Center   47 is at  -4.513737  0.251611  0.143472
      ESP Fit Center   48 is at  -4.513737 -0.174351  0.143472
      ESP Fit Center   49 is at  -4.441749 -0.594186  0.143472
      ESP Fit Center   50 is at  -4.299844 -0.995816  0.143472
      ESP Fit Center   51 is at  -4.092104 -1.367687  0.143472
      ESP Fit Center   52 is at  -3.824506 -1.699101  0.143472
      ESP Fit Center   53 is at  -3.504749 -1.980523  0.143472
      ESP Fit Center   54 is at  -3.142030 -2.203858  0.143472
      ESP Fit Center   55 is at  -2.746784 -2.362681  0.143472
      ESP Fit Center   56 is at  -2.330383 -2.452422  0.143472
      ESP Fit Center   57 is at  -1.904804 -2.470500  0.143472
      ESP Fit Center   58 is at  -1.482293 -2.416396  0.143472
      ESP Fit Center   59 is at  -1.075002 -2.291664  0.143472
      ESP Fit Center   60 is at  -0.694649 -2.099894  0.143472
      ESP Fit Center   61 is at  -4.299844  1.073076 -0.272728
      ESP Fit Center   62 is at  -4.441749  0.671446 -0.272728
      ESP Fit Center   63 is at  -4.513737  0.251611 -0.272728
      ESP Fit Center   64 is at  -4.513737 -0.174351 -0.272728
      ESP Fit Center   65 is at  -4.441749 -0.594186 -0.272728
      ESP Fit Center   66 is at  -3.142030 -2.203858 -0.272728
      ESP Fit Center   67 is at  -2.746784 -2.362681 -0.272728
      ESP Fit Center   68 is at  -2.330383 -2.452422 -0.272728
      ESP Fit Center   69 is at  -1.904804 -2.470500 -0.272728
      ESP Fit Center   70 is at  -1.482293 -2.416396 -0.272728
      ESP Fit Center   71 is at  -1.075002 -2.291664 -0.272728
      ESP Fit Center   72 is at  -4.126995  1.260074 -0.683251
      ESP Fit Center   73 is at  -4.306955  0.874147 -0.683251
      ESP Fit Center   74 is at  -4.417167  0.462833 -0.683251
      ESP Fit Center   75 is at  -4.454280  0.038630 -0.683251
      ESP Fit Center   76 is at  -2.011391 -2.404259 -0.683251
      ESP Fit Center   77 is at  -1.587188 -2.367146 -0.683251
      ESP Fit Center   78 is at  -1.175874 -2.256935 -0.683251
      ESP Fit Center   79 is at  -3.973479  1.253503 -1.076900
      ESP Fit Center   80 is at  -4.163303  0.872285 -1.076900
      ESP Fit Center   81 is at  -1.379846 -2.181022 -1.076900
      ESP Fit Center   82 is at  -0.982739 -2.027182 -1.076900
      ESP Fit Center   83 is at  -0.557905  1.567696 -1.442937
      ESP Fit Center   84 is at  -0.895457  1.828980 -1.442937
      ESP Fit Center   85 is at  -3.612112  1.412804 -1.442937
      ESP Fit Center   86 is at  -3.855965  1.062452 -1.442937
      ESP Fit Center   87 is at  -1.278695 -1.939708 -1.442937
      ESP Fit Center   88 is at  -0.591126  1.230374 -1.771378
      ESP Fit Center   89 is at  -0.904245  1.525786 -1.771378
      ESP Fit Center   90 is at  -1.277050  1.741025 -1.771378
      ESP Fit Center   91 is at  -2.938403  1.644262 -1.771378
      ESP Fit Center   92 is at  -3.283700  1.387198 -1.771378
      ESP Fit Center   93 is at  -0.688907  0.842850 -2.053262
      ESP Fit Center   94 is at  -0.954924  1.169829 -2.053262
      ESP Fit Center   95 is at  -1.299295  1.412913 -2.053262
      ESP Fit Center   96 is at  -1.696479  1.554072 -2.053262
      ESP Fit Center   97 is at  -2.117018  1.582837 -2.053262
      ESP Fit Center   98 is at  -2.529723  1.497076 -2.053262
      ESP Fit Center   99 is at  -2.903986  1.303149 -2.053262
      ESP Fit Center  100 is at  -0.884336  0.448844 -2.280902
      ESP Fit Center  101 is at  -1.092607  0.809581 -2.280902
      ESP Fit Center  102 is at  -1.411697  1.077330 -2.280902
      ESP Fit Center  103 is at  -1.803120  1.219796 -2.280902
      ESP Fit Center  104 is at  -2.219662  1.219796 -2.280902
      ESP Fit Center  105 is at  -1.193148  0.038630 -2.448087
      ESP Fit Center  106 is at  -1.302772  0.447751 -2.448087
      ESP Fit Center  107 is at  -1.602270  0.747249 -2.448087
      ESP Fit Center  108 is at  -2.011391  0.856872 -2.448087
      ESP Fit Center  109 is at  -2.185902  1.554782  2.011506
      ESP Fit Center  110 is at  -1.778395  1.554782  1.968675
      ESP Fit Center  111 is at  -1.982149  1.907693  1.968675
      ESP Fit Center  112 is at  -2.389656  1.907693  1.968675
      ESP Fit Center  113 is at  -2.593409  1.554782  1.968675
      ESP Fit Center  114 is at  -1.495503  1.953384  1.842055
      ESP Fit Center  115 is at  -1.787300  2.245181  1.842055
      ESP Fit Center  116 is at  -2.185902  2.351986  1.842055
      ESP Fit Center  117 is at  -2.584504  2.245181  1.842055
      ESP Fit Center  118 is at  -2.876301  1.953384  1.842055
      ESP Fit Center  119 is at  -2.983106  1.554782  1.842055
      ESP Fit Center  120 is at  -1.111639  1.970954  1.637179
      ESP Fit Center  121 is at  -1.334520  2.330919  1.637179
      ESP Fit Center  122 is at  -1.672385  2.586063  1.637179
      ESP Fit Center  123 is at  -2.079603  2.701926  1.637179
      ESP Fit Center  124 is at  -2.501178  2.662862  1.637179
      ESP Fit Center  125 is at  -2.880173  2.474145  1.637179
      ESP Fit Center  126 is at  -3.165402  2.161263  1.637179
      ESP Fit Center  127 is at  -3.318345  1.766472  1.637179
      ESP Fit Center  128 is at  -0.960563  2.342260  1.363002
      ESP Fit Center  129 is at  -1.232056  2.655579  1.363002
      ESP Fit Center  130 is at  -1.580824  2.879719  1.363002
      ESP Fit Center  131 is at  -1.978611  2.996520  1.363002
      ESP Fit Center  132 is at  -2.393193  2.996520  1.363002
      ESP Fit Center  133 is at  -2.790981  2.879719  1.363002
      ESP Fit Center  134 is at  -3.139749  2.655579  1.363002
      ESP Fit Center  135 is at  -3.411242  2.342260  1.363002
      ESP Fit Center  136 is at  -3.583465  1.965143  1.363002
      ESP Fit Center  137 is at  -3.642466  1.554782  1.363002
      ESP Fit Center  138 is at  -0.948544  2.716739  1.031506
      ESP Fit Center  139 is at  -1.276384  2.987952  1.031506
      ESP Fit Center  140 is at  -1.661374  3.169114  1.031506
      ESP Fit Center  141 is at  -2.079321  3.248842  1.031506
      ESP Fit Center  142 is at  -2.503965  3.222126  1.031506
      ESP Fit Center  143 is at  -2.908624  3.090644  1.031506
      ESP Fit Center  144 is at  -3.267872  2.862658  1.031506
      ESP Fit Center  145 is at  -3.559135  2.552494  1.031506
      ESP Fit Center  146 is at  -3.764114  2.179640  1.031506
      ESP Fit Center  147 is at  -3.869927  1.767524  1.031506
      ESP Fit Center  148 is at  -3.869927  1.342040  1.031506
      ESP Fit Center  149 is at  -0.728513  2.717011  0.657179
      ESP Fit Center  150 is at  -1.023673  3.012171  0.657179
      ESP Fit Center  151 is at  -1.377112  3.234252  0.657179
      ESP Fit Center  152 is at  -1.771107  3.372116  0.657179
      ESP Fit Center  153 is at  -2.185902  3.418853  0.657179
      ESP Fit Center  154 is at  -2.600697  3.372116  0.657179
      ESP Fit Center  155 is at  -2.994692  3.234252  0.657179
      ESP Fit Center  156 is at  -3.348131  3.012171  0.657179
      ESP Fit Center  157 is at  -3.643291  2.717011  0.657179
      ESP Fit Center  158 is at  -3.865372  2.363572  0.657179
      ESP Fit Center  159 is at  -4.003237  1.969577  0.657179
      ESP Fit Center  160 is at  -4.049973  1.554782  0.657179
      ESP Fit Center  161 is at  -0.634107  2.734425  0.256382
      ESP Fit Center  162 is at  -0.923976  3.040436  0.256382
      ESP Fit Center  163 is at  -1.272851  3.276979  0.256382
      ESP Fit Center  164 is at  -1.664419  3.432994  0.256382
      ESP Fit Center  165 is at  -2.080371  3.501186  0.256382
      ESP Fit Center  166 is at  -2.501258  3.478366  0.256382
      ESP Fit Center  167 is at  -2.907399  3.365602  0.256382
      ESP Fit Center  168 is at  -3.279803  3.168165  0.256382
      ESP Fit Center  169 is at  -3.601058  2.895289  0.256382
      ESP Fit Center  170 is at  -3.856142  2.559732  0.256382
      ESP Fit Center  171 is at  -4.033127  2.177184  0.256382
      ESP Fit Center  172 is at  -4.123738  1.765534  0.256382
      ESP Fit Center  173 is at  -0.634107  2.734425 -0.153370
      ESP Fit Center  174 is at  -0.923976  3.040436 -0.153370
      ESP Fit Center  175 is at  -1.272851  3.276979 -0.153370
      ESP Fit Center  176 is at  -1.664419  3.432994 -0.153370
      ESP Fit Center  177 is at  -2.080371  3.501186 -0.153370
      ESP Fit Center  178 is at  -2.501258  3.478366 -0.153370
      ESP Fit Center  179 is at  -2.907399  3.365602 -0.153370
      ESP Fit Center  180 is at  -3.279803  3.168165 -0.153370
      ESP Fit Center  181 is at  -3.601058  2.895289 -0.153370
      ESP Fit Center  182 is at  -3.856142  2.559732 -0.153370
      ESP Fit Center  183 is at  -4.033127  2.177184 -0.153370
      ESP Fit Center  184 is at  -4.123738  1.765534 -0.153370
      ESP Fit Center  185 is at  -0.506432  2.363572 -0.554167
      ESP Fit Center  186 is at  -0.728513  2.717011 -0.554167
      ESP Fit Center  187 is at  -1.023673  3.012171 -0.554167
      ESP Fit Center  188 is at  -1.377112  3.234252 -0.554167
      ESP Fit Center  189 is at  -1.771107  3.372116 -0.554167
      ESP Fit Center  190 is at  -2.185902  3.418853 -0.554167
      ESP Fit Center  191 is at  -2.600697  3.372116 -0.554167
      ESP Fit Center  192 is at  -2.994692  3.234252 -0.554167
      ESP Fit Center  193 is at  -3.348131  3.012171 -0.554167
      ESP Fit Center  194 is at  -3.643291  2.717011 -0.554167
      ESP Fit Center  195 is at  -3.865372  2.363572 -0.554167
      ESP Fit Center  196 is at  -4.003237  1.969577 -0.554167
      ESP Fit Center  197 is at  -4.049973  1.554782 -0.554167
      ESP Fit Center  198 is at  -0.541820  1.976910 -0.928494
      ESP Fit Center  199 is at  -0.698451  2.372515 -0.928494
      ESP Fit Center  200 is at  -0.948544  2.716739 -0.928494
      ESP Fit Center  201 is at  -1.276384  2.987952 -0.928494
      ESP Fit Center  202 is at  -1.661374  3.169114 -0.928494
      ESP Fit Center  203 is at  -2.079321  3.248842 -0.928494
      ESP Fit Center  204 is at  -2.503965  3.222126 -0.928494
      ESP Fit Center  205 is at  -2.908624  3.090644 -0.928494
      ESP Fit Center  206 is at  -3.267872  2.862658 -0.928494
      ESP Fit Center  207 is at  -3.559135  2.552494 -0.928494
      ESP Fit Center  208 is at  -3.764114  2.179640 -0.928494
      ESP Fit Center  209 is at  -3.869927  1.767524 -0.928494
      ESP Fit Center  210 is at  -0.788339  1.965143 -1.259990
      ESP Fit Center  211 is at  -0.960563  2.342260 -1.259990
      ESP Fit Center  212 is at  -1.232056  2.655579 -1.259990
      ESP Fit Center  213 is at  -1.580824  2.879719 -1.259990
      ESP Fit Center  214 is at  -1.978611  2.996520 -1.259990
      ESP Fit Center  215 is at  -2.393193  2.996520 -1.259990
      ESP Fit Center  216 is at  -2.790981  2.879719 -1.259990
      ESP Fit Center  217 is at  -3.139749  2.655579 -1.259990
      ESP Fit Center  218 is at  -3.411242  2.342260 -1.259990
      ESP Fit Center  219 is at  -3.583465  1.965143 -1.259990
      ESP Fit Center  220 is at  -3.642466  1.554782 -1.259990
      ESP Fit Center  221 is at  -1.111639  1.970954 -1.534167
      ESP Fit Center  222 is at  -1.334520  2.330919 -1.534167
      ESP Fit Center  223 is at  -1.672385  2.586063 -1.534167
      ESP Fit Center  224 is at  -2.079603  2.701926 -1.534167
      ESP Fit Center  225 is at  -2.501178  2.662862 -1.534167
      ESP Fit Center  226 is at  -2.880173  2.474145 -1.534167
      ESP Fit Center  227 is at  -3.165402  2.161263 -1.534167
      ESP Fit Center  228 is at  -3.318345  1.766472 -1.534167
      ESP Fit Center  229 is at  -1.495503  1.953384 -1.739043
      ESP Fit Center  230 is at  -1.787300  2.245181 -1.739043
      ESP Fit Center  231 is at  -2.185902  2.351986 -1.739043
      ESP Fit Center  232 is at  -2.584504  2.245181 -1.739043
      ESP Fit Center  233 is at  -2.876301  1.953384 -1.739043
      ESP Fit Center  234 is at  -1.982149  1.907693 -1.865663
      ESP Fit Center  235 is at  -2.389656  1.907693 -1.865663
      ESP Fit Center  236 is at  -4.263520 -1.204537 -0.305869
      ESP Fit Center  237 is at  -4.058541 -1.577392 -0.305869
      ESP Fit Center  238 is at  -3.767278 -1.887556 -0.305869
      ESP Fit Center  239 is at  -3.408030 -2.115542 -0.305869
      ESP Fit Center  240 is at  -4.502643 -0.164884 -0.680196
      ESP Fit Center  241 is at  -4.549379 -0.579679 -0.680196
      ESP Fit Center  242 is at  -4.502643 -0.994474 -0.680196
      ESP Fit Center  243 is at  -4.364778 -1.388469 -0.680196
      ESP Fit Center  244 is at  -4.142697 -1.741908 -0.680196
      ESP Fit Center  245 is at  -3.847537 -2.037068 -0.680196
      ESP Fit Center  246 is at  -3.494098 -2.259149 -0.680196
      ESP Fit Center  247 is at  -3.100103 -2.397014 -0.680196
      ESP Fit Center  248 is at  -2.685308 -2.443750 -0.680196
      ESP Fit Center  249 is at  -2.270513 -2.397014 -0.680196
      ESP Fit Center  250 is at  -4.355548  0.425271 -1.080993
      ESP Fit Center  251 is at  -4.532533  0.042723 -1.080993
      ESP Fit Center  252 is at  -4.623144 -0.368927 -1.080993
      ESP Fit Center  253 is at  -4.623144 -0.790432 -1.080993
      ESP Fit Center  254 is at  -4.532533 -1.202082 -1.080993
      ESP Fit Center  255 is at  -4.355548 -1.584629 -1.080993
      ESP Fit Center  256 is at  -4.100464 -1.920186 -1.080993
      ESP Fit Center  257 is at  -3.779209 -2.193063 -1.080993
      ESP Fit Center  258 is at  -3.406805 -2.390499 -1.080993
      ESP Fit Center  259 is at  -3.000664 -2.503264 -1.080993
      ESP Fit Center  260 is at  -2.579777 -2.526083 -1.080993
      ESP Fit Center  261 is at  -2.163825 -2.457892 -1.080993
      ESP Fit Center  262 is at  -1.772257 -2.301877 -1.080993
      ESP Fit Center  263 is at  -4.100464  0.760828 -1.490745
      ESP Fit Center  264 is at  -4.355548  0.425271 -1.490745
      ESP Fit Center  265 is at  -4.532533  0.042723 -1.490745
      ESP Fit Center  266 is at  -4.623144 -0.368927 -1.490745
      ESP Fit Center  267 is at  -4.623144 -0.790432 -1.490745
      ESP Fit Center  268 is at  -4.532533 -1.202082 -1.490745
      ESP Fit Center  269 is at  -4.355548 -1.584629 -1.490745
      ESP Fit Center  270 is at  -4.100464 -1.920186 -1.490745
      ESP Fit Center  271 is at  -3.779209 -2.193063 -1.490745
      ESP Fit Center  272 is at  -3.406805 -2.390499 -1.490745
      ESP Fit Center  273 is at  -3.000664 -2.503264 -1.490745
      ESP Fit Center  274 is at  -2.579777 -2.526083 -1.490745
      ESP Fit Center  275 is at  -2.163825 -2.457892 -1.490745
      ESP Fit Center  276 is at  -1.772257 -2.301877 -1.490745
      ESP Fit Center  277 is at  -1.423382 -2.065333 -1.490745
      ESP Fit Center  278 is at  -3.494098  1.099790 -1.891542
      ESP Fit Center  279 is at  -3.847537  0.877710 -1.891542
      ESP Fit Center  280 is at  -4.142697  0.582550 -1.891542
      ESP Fit Center  281 is at  -4.364778  0.229111 -1.891542
      ESP Fit Center  282 is at  -4.502643 -0.164884 -1.891542
      ESP Fit Center  283 is at  -4.549379 -0.579679 -1.891542
      ESP Fit Center  284 is at  -4.502643 -0.994474 -1.891542
      ESP Fit Center  285 is at  -4.364778 -1.388469 -1.891542
      ESP Fit Center  286 is at  -4.142697 -1.741908 -1.891542
      ESP Fit Center  287 is at  -3.847537 -2.037068 -1.891542
      ESP Fit Center  288 is at  -3.494098 -2.259149 -1.891542
      ESP Fit Center  289 is at  -3.100103 -2.397014 -1.891542
      ESP Fit Center  290 is at  -2.685308 -2.443750 -1.891542
      ESP Fit Center  291 is at  -2.270513 -2.397014 -1.891542
      ESP Fit Center  292 is at  -1.876518 -2.259149 -1.891542
      ESP Fit Center  293 is at  -1.523079 -2.037068 -1.891542
      ESP Fit Center  294 is at  -1.227919 -1.741908 -1.891542
      ESP Fit Center  295 is at  -1.005838 -1.388469 -1.891542
      ESP Fit Center  296 is at  -3.003371  1.087665 -2.265869
      ESP Fit Center  297 is at  -3.408030  0.956183 -2.265869
      ESP Fit Center  298 is at  -3.767278  0.728197 -2.265869
      ESP Fit Center  299 is at  -4.058541  0.418033 -2.265869
      ESP Fit Center  300 is at  -4.263520  0.045179 -2.265869
      ESP Fit Center  301 is at  -4.369333 -0.366937 -2.265869
      ESP Fit Center  302 is at  -4.369333 -0.792421 -2.265869
      ESP Fit Center  303 is at  -4.263520 -1.204537 -2.265869
      ESP Fit Center  304 is at  -4.058541 -1.577392 -2.265869
      ESP Fit Center  305 is at  -3.767278 -1.887556 -2.265869
      ESP Fit Center  306 is at  -3.408030 -2.115542 -2.265869
      ESP Fit Center  307 is at  -3.003371 -2.247023 -2.265869
      ESP Fit Center  308 is at  -2.578727 -2.273740 -2.265869
      ESP Fit Center  309 is at  -2.160780 -2.194012 -2.265869
      ESP Fit Center  310 is at  -1.775790 -2.012850 -2.265869
      ESP Fit Center  311 is at  -1.447950 -1.741636 -2.265869
      ESP Fit Center  312 is at  -1.197856 -1.397413 -2.265869
      ESP Fit Center  313 is at  -1.041225 -1.001808 -2.265869
      ESP Fit Center  314 is at  -1.228744 -0.579679 -2.597365
      ESP Fit Center  315 is at  -1.287745 -0.169318 -2.597365
      ESP Fit Center  316 is at  -1.459969  0.207799 -2.597365
      ESP Fit Center  317 is at  -1.731462  0.521118 -2.597365
      ESP Fit Center  318 is at  -2.080230  0.745258 -2.597365
      ESP Fit Center  319 is at  -2.478017  0.862059 -2.597365
      ESP Fit Center  320 is at  -2.892599  0.862059 -2.597365
      ESP Fit Center  321 is at  -3.290386  0.745258 -2.597365
      ESP Fit Center  322 is at  -3.639154  0.521118 -2.597365
      ESP Fit Center  323 is at  -3.910647  0.207799 -2.597365
      ESP Fit Center  324 is at  -4.082871 -0.169318 -2.597365
      ESP Fit Center  325 is at  -4.141872 -0.579679 -2.597365
      ESP Fit Center  326 is at  -4.082871 -0.990041 -2.597365
      ESP Fit Center  327 is at  -3.910647 -1.367157 -2.597365
      ESP Fit Center  328 is at  -3.639154 -1.680477 -2.597365
      ESP Fit Center  329 is at  -3.290386 -1.904616 -2.597365
      ESP Fit Center  330 is at  -2.892599 -2.021417 -2.597365
      ESP Fit Center  331 is at  -2.478017 -2.021417 -2.597365
      ESP Fit Center  332 is at  -2.080230 -1.904616 -2.597365
      ESP Fit Center  333 is at  -1.731462 -1.680477 -2.597365
      ESP Fit Center  334 is at  -1.459969 -1.367157 -2.597365
      ESP Fit Center  335 is at  -1.287745 -0.990041 -2.597365
      ESP Fit Center  336 is at  -1.533249 -0.579679 -2.871542
      ESP Fit Center  337 is at  -1.611045 -0.163507 -2.871542
      ESP Fit Center  338 is at  -1.833926  0.196458 -2.871542
      ESP Fit Center  339 is at  -2.171791  0.451602 -2.871542
      ESP Fit Center  340 is at  -2.579009  0.567465 -2.871542
      ESP Fit Center  341 is at  -3.000584  0.528401 -2.871542
      ESP Fit Center  342 is at  -3.379579  0.339684 -2.871542
      ESP Fit Center  343 is at  -3.664808  0.026802 -2.871542
      ESP Fit Center  344 is at  -3.817751 -0.367989 -2.871542
      ESP Fit Center  345 is at  -3.817751 -0.791370 -2.871542
      ESP Fit Center  346 is at  -3.664808 -1.186160 -2.871542
      ESP Fit Center  347 is at  -3.379579 -1.499042 -2.871542
      ESP Fit Center  348 is at  -3.000584 -1.687759 -2.871542
      ESP Fit Center  349 is at  -2.579009 -1.726824 -2.871542
      ESP Fit Center  350 is at  -2.171791 -1.610960 -2.871542
      ESP Fit Center  351 is at  -1.833926 -1.355816 -2.871542
      ESP Fit Center  352 is at  -1.611045 -0.995851 -2.871542
      ESP Fit Center  353 is at  -1.888104 -0.579679 -3.076418
      ESP Fit Center  354 is at  -1.994909 -0.181077 -3.076418
      ESP Fit Center  355 is at  -2.286706  0.110720 -3.076418
      ESP Fit Center  356 is at  -2.685308  0.217525 -3.076418
      ESP Fit Center  357 is at  -3.083910  0.110720 -3.076418
      ESP Fit Center  358 is at  -3.375707 -0.181077 -3.076418
      ESP Fit Center  359 is at  -3.482512 -0.579679 -3.076418
      ESP Fit Center  360 is at  -3.375707 -0.978281 -3.076418
      ESP Fit Center  361 is at  -3.083910 -1.270078 -3.076418
      ESP Fit Center  362 is at  -2.685308 -1.376883 -3.076418
      ESP Fit Center  363 is at  -2.286706 -1.270078 -3.076418
      ESP Fit Center  364 is at  -1.994909 -0.978281 -3.076418
      ESP Fit Center  365 is at  -2.277801 -0.579679 -3.203038
      ESP Fit Center  366 is at  -2.481555 -0.226768 -3.203038
      ESP Fit Center  367 is at  -2.889061 -0.226768 -3.203038
      ESP Fit Center  368 is at  -3.092815 -0.579679 -3.203038
      ESP Fit Center  369 is at  -2.889061 -0.932591 -3.203038
      ESP Fit Center  370 is at  -2.481555 -0.932591 -3.203038
      ESP Fit Center  371 is at  -2.685308 -0.579679 -3.245869
      ESP Fit Center  372 is at  -2.283739 -0.702418  3.206362
      ESP Fit Center  373 is at  -1.876232 -0.702418  3.163531
      ESP Fit Center  374 is at  -2.079986 -0.349507  3.163531
      ESP Fit Center  375 is at  -2.487492 -0.349507  3.163531
      ESP Fit Center  376 is at  -2.691246 -0.702418  3.163531
      ESP Fit Center  377 is at  -2.487492 -1.055330  3.163531
      ESP Fit Center  378 is at  -2.079986 -1.055330  3.163531
      ESP Fit Center  379 is at  -1.486535 -0.702418  3.036911
      ESP Fit Center  380 is at  -1.593340 -0.303816  3.036911
      ESP Fit Center  381 is at  -1.885137 -0.012019  3.036911
      ESP Fit Center  382 is at  -2.283739  0.094786  3.036911
      ESP Fit Center  383 is at  -2.682341 -0.012019  3.036911
      ESP Fit Center  384 is at  -2.974138 -0.303816  3.036911
      ESP Fit Center  385 is at  -3.080943 -0.702418  3.036911
      ESP Fit Center  386 is at  -2.974138 -1.101020  3.036911
      ESP Fit Center  387 is at  -2.682341 -1.392817  3.036911
      ESP Fit Center  388 is at  -2.283739 -1.499622  3.036911
      ESP Fit Center  389 is at  -1.885137 -1.392817  3.036911
      ESP Fit Center  390 is at  -1.593340 -1.101020  3.036911
      ESP Fit Center  391 is at  -1.131680 -0.702418  2.832035
      ESP Fit Center  392 is at  -1.209476 -0.286246  2.832035
      ESP Fit Center  393 is at  -1.432357  0.073719  2.832035
      ESP Fit Center  394 is at  -1.770222  0.328863  2.832035
      ESP Fit Center  395 is at  -2.177440  0.444726  2.832035
      ESP Fit Center  396 is at  -2.599015  0.405662  2.832035
      ESP Fit Center  397 is at  -2.978010  0.216945  2.832035
      ESP Fit Center  398 is at  -3.263239 -0.095937  2.832035
      ESP Fit Center  399 is at  -3.416182 -0.490728  2.832035
      ESP Fit Center  400 is at  -3.416182 -0.914109  2.832035
      ESP Fit Center  401 is at  -3.263239 -1.308899  2.832035
      ESP Fit Center  402 is at  -2.978010 -1.621781  2.832035
      ESP Fit Center  403 is at  -2.599015 -1.810498  2.832035
      ESP Fit Center  404 is at  -2.177440 -1.849563  2.832035
      ESP Fit Center  405 is at  -1.770222 -1.733699  2.832035
      ESP Fit Center  406 is at  -1.432357 -1.478555  2.832035
      ESP Fit Center  407 is at  -1.209476 -1.118590  2.832035
      ESP Fit Center  408 is at  -1.058400  0.085060  2.557858
      ESP Fit Center  409 is at  -1.329893  0.398379  2.557858
      ESP Fit Center  410 is at  -1.678661  0.622519  2.557858
      ESP Fit Center  411 is at  -2.076448  0.739320  2.557858
      ESP Fit Center  412 is at  -2.491030  0.739320  2.557858
      ESP Fit Center  413 is at  -2.888817  0.622519  2.557858
      ESP Fit Center  414 is at  -3.237585  0.398379  2.557858
      ESP Fit Center  415 is at  -3.509078  0.085060  2.557858
      ESP Fit Center  416 is at  -3.681302 -0.292057  2.557858
      ESP Fit Center  417 is at  -3.740303 -0.702418  2.557858
      ESP Fit Center  418 is at  -3.681302 -1.112780  2.557858
      ESP Fit Center  419 is at  -3.509078 -1.489896  2.557858
      ESP Fit Center  420 is at  -3.237585 -1.803216  2.557858
      ESP Fit Center  421 is at  -2.888817 -2.027355  2.557858
      ESP Fit Center  422 is at  -2.491030 -2.144156  2.557858
      ESP Fit Center  423 is at  -2.076448 -2.144156  2.557858
      ESP Fit Center  424 is at  -1.678661 -2.027355  2.557858
      ESP Fit Center  425 is at  -1.329893 -1.803216  2.557858
      ESP Fit Center  426 is at  -1.058400 -1.489896  2.557858
      ESP Fit Center  427 is at  -0.886176 -1.112780  2.557858
      ESP Fit Center  428 is at  -2.601802  0.964926  2.226362
      ESP Fit Center  429 is at  -3.006461  0.833444  2.226362
      ESP Fit Center  430 is at  -3.365709  0.605458  2.226362
      ESP Fit Center  431 is at  -3.656972  0.295294  2.226362
      ESP Fit Center  432 is at  -3.861951 -0.077560  2.226362
      ESP Fit Center  433 is at  -3.967764 -0.489676  2.226362
      ESP Fit Center  434 is at  -3.967764 -0.915160  2.226362
      ESP Fit Center  435 is at  -3.861951 -1.327276  2.226362
      ESP Fit Center  436 is at  -3.656972 -1.700131  2.226362
      ESP Fit Center  437 is at  -3.365709 -2.010295  2.226362
      ESP Fit Center  438 is at  -3.006461 -2.238281  2.226362
      ESP Fit Center  439 is at  -2.601802 -2.369762  2.226362
      ESP Fit Center  440 is at  -2.177158 -2.396479  2.226362
      ESP Fit Center  441 is at  -1.759211 -2.316751  2.226362
      ESP Fit Center  442 is at  -1.374221 -2.135589  2.226362
      ESP Fit Center  443 is at  -1.046381 -1.864375  2.226362
      ESP Fit Center  444 is at  -0.796287 -1.520152  2.226362
      ESP Fit Center  445 is at  -3.741128  0.459811  1.852035
      ESP Fit Center  446 is at  -3.963209  0.106372  1.852035
      ESP Fit Center  447 is at  -4.101074 -0.287623  1.852035
      ESP Fit Center  448 is at  -4.147810 -0.702418  1.852035
      ESP Fit Center  449 is at  -4.101074 -1.117213  1.852035
      ESP Fit Center  450 is at  -3.963209 -1.511208  1.852035
      ESP Fit Center  451 is at  -3.741128 -1.864647  1.852035
      ESP Fit Center  452 is at  -3.445968 -2.159807  1.852035
      ESP Fit Center  453 is at  -3.092529 -2.381888  1.852035
      ESP Fit Center  454 is at  -2.698534 -2.519753  1.852035
      ESP Fit Center  455 is at  -2.283739 -2.566489  1.852035
      ESP Fit Center  456 is at  -1.868944 -2.519753  1.852035
      ESP Fit Center  457 is at  -1.474949 -2.381888  1.852035
      ESP Fit Center  458 is at  -1.121510 -2.159807  1.852035
      ESP Fit Center  459 is at  -0.826350 -1.864647  1.852035
      ESP Fit Center  460 is at  -4.130964 -0.080016  1.451238
      ESP Fit Center  461 is at  -4.221575 -0.491666  1.451238
      ESP Fit Center  462 is at  -4.221575 -0.913171  1.451238
      ESP Fit Center  463 is at  -4.130964 -1.324821  1.451238
      ESP Fit Center  464 is at  -3.953979 -1.707368  1.451238
      ESP Fit Center  465 is at  -3.698895 -2.042925  1.451238
      ESP Fit Center  466 is at  -3.377640 -2.315802  1.451238
      ESP Fit Center  467 is at  -3.005236 -2.513238  1.451238
      ESP Fit Center  468 is at  -2.599095 -2.626003  1.451238
      ESP Fit Center  469 is at  -2.178208 -2.648822  1.451238
      ESP Fit Center  470 is at  -1.762256 -2.580630  1.451238
      ESP Fit Center  471 is at  -1.370688 -2.424615  1.451238
      ESP Fit Center  472 is at  -1.021813 -2.188072  1.451238
      ESP Fit Center  473 is at  -0.731944 -1.882062  1.451238
      ESP Fit Center  474 is at  -4.221575 -0.491666  1.041486
      ESP Fit Center  475 is at  -4.221575 -0.913171  1.041486
      ESP Fit Center  476 is at  -4.130964 -1.324821  1.041486
      ESP Fit Center  477 is at  -3.953979 -1.707368  1.041486
      ESP Fit Center  478 is at  -3.698895 -2.042925  1.041486
      ESP Fit Center  479 is at  -3.377640 -2.315802  1.041486
      ESP Fit Center  480 is at  -3.005236 -2.513238  1.041486
      ESP Fit Center  481 is at  -2.599095 -2.626003  1.041486
      ESP Fit Center  482 is at  -2.178208 -2.648822  1.041486
      ESP Fit Center  483 is at  -1.762256 -2.580630  1.041486
      ESP Fit Center  484 is at  -1.370688 -2.424615  1.041486
      ESP Fit Center  485 is at  -1.021813 -2.188072  1.041486
      ESP Fit Center  486 is at  -0.731944 -1.882062  1.041486
      ESP Fit Center  487 is at  -3.963209 -1.511208  0.640689
      ESP Fit Center  488 is at  -3.741128 -1.864647  0.640689
      ESP Fit Center  489 is at  -3.445968 -2.159807  0.640689
      ESP Fit Center  490 is at  -3.092529 -2.381888  0.640689
      ESP Fit Center  491 is at  -2.698534 -2.519753  0.640689
      ESP Fit Center  492 is at  -2.283739 -2.566489  0.640689
      ESP Fit Center  493 is at  -1.868944 -2.519753  0.640689
      ESP Fit Center  494 is at  -1.474949 -2.381888  0.640689
      ESP Fit Center  495 is at  -0.287632 -1.898823  0.579140
      ESP Fit Center  496 is at   0.130315 -1.819095  0.579140
      ESP Fit Center  497 is at  -0.394213 -2.068833  0.204813
      ESP Fit Center  498 is at   0.020582 -2.022097  0.204813
      ESP Fit Center  499 is at  -0.709569 -2.128347 -0.195984
      ESP Fit Center  500 is at  -0.288682 -2.151166 -0.195984
      ESP Fit Center  501 is at   0.127270 -2.082974 -0.195984
      ESP Fit Center  502 is at  -0.709569 -2.128347 -0.605736
      ESP Fit Center  503 is at  -0.288682 -2.151166 -0.605736
      ESP Fit Center  504 is at   0.127270 -2.082974 -0.605736
      ESP Fit Center  505 is at   0.020582  1.612572 -1.006533
      ESP Fit Center  506 is at  -0.809008 -2.022097 -1.006533
      ESP Fit Center  507 is at  -0.394213 -2.068833 -1.006533
      ESP Fit Center  508 is at   0.020582 -2.022097 -1.006533
      ESP Fit Center  509 is at   0.414577 -1.884232 -1.006533
      ESP Fit Center  510 is at   0.515305  1.228408 -1.380860
      ESP Fit Center  511 is at   0.130315  1.409570 -1.380860
      ESP Fit Center  512 is at  -0.287632  1.489298 -1.380860
      ESP Fit Center  513 is at  -0.712276 -1.872106 -1.380860
      ESP Fit Center  514 is at  -0.287632 -1.898823 -1.380860
      ESP Fit Center  515 is at   0.130315 -1.819095 -1.380860
      ESP Fit Center  516 is at   0.515305 -1.637933 -1.380860
      ESP Fit Center  517 is at   0.843145 -1.366719 -1.380860
      ESP Fit Center  518 is at   1.003350  0.205599 -1.712356
      ESP Fit Center  519 is at   0.831126  0.582716 -1.712356
      ESP Fit Center  520 is at   0.559633  0.896035 -1.712356
      ESP Fit Center  521 is at   0.210865  1.120175 -1.712356
      ESP Fit Center  522 is at  -0.186922  1.236976 -1.712356
      ESP Fit Center  523 is at  -0.601504 -1.646500 -1.712356
      ESP Fit Center  524 is at  -0.186922 -1.646500 -1.712356
      ESP Fit Center  525 is at   0.210865 -1.529699 -1.712356
      ESP Fit Center  526 is at   0.559633 -1.305560 -1.712356
      ESP Fit Center  527 is at   0.831126 -0.992240 -1.712356
      ESP Fit Center  528 is at   1.003350 -0.615124 -1.712356
      ESP Fit Center  529 is at   0.757846 -0.204762 -1.986533
      ESP Fit Center  530 is at   0.680050  0.211410 -1.986533
      ESP Fit Center  531 is at   0.457169  0.571375 -1.986533
      ESP Fit Center  532 is at   0.119304  0.826519 -1.986533
      ESP Fit Center  533 is at  -0.287914  0.942382 -1.986533
      ESP Fit Center  534 is at  -0.709489 -1.312842 -1.986533
      ESP Fit Center  535 is at  -0.287914 -1.351907 -1.986533
      ESP Fit Center  536 is at   0.119304 -1.236043 -1.986533
      ESP Fit Center  537 is at   0.457169 -0.980899 -1.986533
      ESP Fit Center  538 is at   0.680050 -0.620934 -1.986533
      ESP Fit Center  539 is at   0.402991 -0.204762 -2.191409
      ESP Fit Center  540 is at   0.296186  0.193840 -2.191409
      ESP Fit Center  541 is at   0.004389  0.485637 -2.191409
      ESP Fit Center  542 is at  -0.394213  0.592442 -2.191409
      ESP Fit Center  543 is at  -0.792815 -0.895161 -2.191409
      ESP Fit Center  544 is at  -0.394213 -1.001966 -2.191409
      ESP Fit Center  545 is at   0.004389 -0.895161 -2.191409
      ESP Fit Center  546 is at   0.296186 -0.603364 -2.191409
      ESP Fit Center  547 is at   0.013294 -0.204762 -2.318029
      ESP Fit Center  548 is at  -0.190460  0.148149 -2.318029
      ESP Fit Center  549 is at  -0.597966  0.148149 -2.318029
      ESP Fit Center  550 is at  -0.801720 -0.204762 -2.318029
      ESP Fit Center  551 is at  -0.597966 -0.557674 -2.318029
      ESP Fit Center  552 is at  -0.190460 -0.557674 -2.318029
      ESP Fit Center  553 is at  -0.394213 -0.204762 -2.360860
      ESP Fit Center  554 is at   1.632803  0.682988  2.317516
      ESP Fit Center  555 is at   1.407090  1.047527  2.317516
      ESP Fit Center  556 is at   1.064932  1.305913  2.317516
      ESP Fit Center  557 is at   0.225608  1.383687  2.317516
      ESP Fit Center  558 is at   1.794088  1.064339  2.056354
      ESP Fit Center  559 is at   1.517309  1.383759  2.056354
      ESP Fit Center  560 is at   1.851854  1.419397  1.738127
      ESP Fit Center  561 is at   0.440570 -1.795478  0.981120
      ESP Fit Center  562 is at   1.161750  1.612262 -0.913494
      ESP Fit Center  563 is at   1.064932  1.305913 -1.174656
      ESP Fit Center  564 is at   0.652539  1.423248 -1.174656
      ESP Fit Center  565 is at   0.946708  0.957496 -1.368717
      ESP Fit Center  566 is at   0.290741 -0.177876  3.225034
      ESP Fit Center  567 is at   0.725557 -0.177876  3.167789
      ESP Fit Center  568 is at   0.508149  0.198686  3.167789
      ESP Fit Center  569 is at   0.073333  0.198686  3.167789
      ESP Fit Center  570 is at  -0.144075 -0.177876  3.167789
      ESP Fit Center  571 is at   0.073333 -0.554438  3.167789
      ESP Fit Center  572 is at   0.508149 -0.554438  3.167789
      ESP Fit Center  573 is at   1.130741 -0.177876  2.999957
      ESP Fit Center  574 is at   1.018202  0.242124  2.999957
      ESP Fit Center  575 is at   0.710741  0.549585  2.999957
      ESP Fit Center  576 is at   0.290741  0.662124  2.999957
      ESP Fit Center  577 is at  -0.129259  0.549585  2.999957
      ESP Fit Center  578 is at  -0.436720  0.242124  2.999957
      ESP Fit Center  579 is at  -0.549259 -0.177876  2.999957
      ESP Fit Center  580 is at  -0.436720 -0.597876  2.999957
      ESP Fit Center  581 is at  -0.129259 -0.905337  2.999957
      ESP Fit Center  582 is at   0.290741 -1.017876  2.999957
      ESP Fit Center  583 is at   0.710741 -0.905337  2.999957
      ESP Fit Center  584 is at   1.018202 -0.597876  2.999957
      ESP Fit Center  585 is at   1.478680 -0.177876  2.732973
      ESP Fit Center  586 is at   1.398461  0.251257  2.732973
      ESP Fit Center  587 is at   1.168639  0.622433  2.732973
      ESP Fit Center  588 is at   0.820251  0.885524  2.732973
      ESP Fit Center  589 is at   0.400350  1.004996  2.732973
      ESP Fit Center  590 is at  -0.034354  0.964714  2.732973
      ESP Fit Center  591 is at  -0.425152  0.770120  2.732973
      ESP Fit Center  592 is at  -0.719265  0.447493  2.732973
      ESP Fit Center  593 is at  -0.876971  0.040407  2.732973
      ESP Fit Center  594 is at  -0.876971 -0.396159  2.732973
      ESP Fit Center  595 is at  -0.719265 -0.803246  2.732973
      ESP Fit Center  596 is at  -0.425152 -1.125872  2.732973
      ESP Fit Center  597 is at  -0.034354 -1.320467  2.732973
      ESP Fit Center  598 is at   0.400350 -1.360748  2.732973
      ESP Fit Center  599 is at   0.820251 -1.241276  2.732973
      ESP Fit Center  600 is at   1.168639 -0.978186  2.732973
      ESP Fit Center  601 is at   1.398461 -0.607009  2.732973
      ESP Fit Center  602 is at   1.745664 -0.177876  2.385034
      ESP Fit Center  603 is at   1.681026  0.250970  2.385034
      ESP Fit Center  604 is at  -0.033010  1.240569  2.385034
      ESP Fit Center  605 is at  -0.436720  1.082124  2.385034
      ESP Fit Center  606 is at  -0.775793  0.811723  2.385034
      ESP Fit Center  607 is at  -1.020099  0.453391  2.385034
      ESP Fit Center  608 is at  -0.436720 -1.437876  2.385034
      ESP Fit Center  609 is at  -0.033010 -1.596321  2.385034
      ESP Fit Center  610 is at   0.399467 -1.628731  2.385034
      ESP Fit Center  611 is at   0.822284 -1.532225  2.385034
      ESP Fit Center  612 is at   1.197870 -1.315380  2.385034
      ESP Fit Center  613 is at   1.492855 -0.997463  2.385034
      ESP Fit Center  614 is at   1.681026 -0.606722  2.385034
      ESP Fit Center  615 is at  -0.856720  0.969585  1.979850
      ESP Fit Center  616 is at  -0.520637 -1.583224  1.979850
      ESP Fit Center  617 is at  -0.129259 -1.745337  1.979850
      ESP Fit Center  618 is at   0.290741 -1.800632  1.979850
      ESP Fit Center  619 is at   0.710741 -1.745337  1.979850
      ESP Fit Center  620 is at   1.102119 -1.583224  1.979850
      ESP Fit Center  621 is at   1.438202 -1.325337  1.979850
      ESP Fit Center  622 is at  -0.424568 -1.697986  1.545034
      ESP Fit Center  623 is at  -0.024060 -1.828119  1.545034
      ESP Fit Center  624 is at   0.396229 -1.854561  1.545034
      ESP Fit Center  625 is at   0.809890 -1.775651  1.545034
      ESP Fit Center  626 is at  -0.129259 -1.745337  1.110218
      ESP Fit Center  627 is at   0.290741 -1.800632  1.110218
      ESP Fit Center  628 is at   0.704255  1.729559  2.277417
      ESP Fit Center  629 is at   0.269439  1.729559  2.277417
      ESP Fit Center  630 is at   1.214308  1.772997  2.109585
      ESP Fit Center  631 is at   0.906847  2.080458  2.109585
      ESP Fit Center  632 is at   0.486847  2.192997  2.109585
      ESP Fit Center  633 is at   0.066847  2.080458  2.109585
      ESP Fit Center  634 is at  -0.240614  1.772997  2.109585
      ESP Fit Center  635 is at   1.594567  1.782130  1.842601
      ESP Fit Center  636 is at   1.364745  2.153306  1.842601
      ESP Fit Center  637 is at   1.016357  2.416397  1.842601
      ESP Fit Center  638 is at   0.596456  2.535869  1.842601
      ESP Fit Center  639 is at   0.161752  2.495587  1.842601
      ESP Fit Center  640 is at  -0.229046  2.300993  1.842601
      ESP Fit Center  641 is at  -0.523159  1.978366  1.842601
      ESP Fit Center  642 is at  -0.680866  1.571280  1.842601
      ESP Fit Center  643 is at   1.688960  2.172584  1.494662
      ESP Fit Center  644 is at   1.393976  2.490501  1.494662
      ESP Fit Center  645 is at   1.018390  2.707346  1.494662
      ESP Fit Center  646 is at   0.595573  2.803851  1.494662
      ESP Fit Center  647 is at   0.163096  2.771442  1.494662
      ESP Fit Center  648 is at  -0.240614  2.612997  1.494662
      ESP Fit Center  649 is at  -0.579687  2.342596  1.494662
      ESP Fit Center  650 is at  -0.823993  1.984264  1.494662
      ESP Fit Center  651 is at   1.298225  2.758344  1.089478
      ESP Fit Center  652 is at   0.906847  2.920458  1.089478
      ESP Fit Center  653 is at   0.486847  2.975752  1.089478
      ESP Fit Center  654 is at   0.066847  2.920458  1.089478
      ESP Fit Center  655 is at  -0.324531  2.758344  1.089478
      ESP Fit Center  656 is at  -0.660614  2.500458  1.089478
      ESP Fit Center  657 is at   1.387036  2.771468  0.654662
      ESP Fit Center  658 is at   1.005995  2.950772  0.654662
      ESP Fit Center  659 is at   0.592335  3.029682  0.654662
      ESP Fit Center  660 is at   0.172046  3.003239  0.654662
      ESP Fit Center  661 is at  -0.228462  2.873106  0.654662
      ESP Fit Center  662 is at  -0.584025  2.647459  0.654662
      ESP Fit Center  663 is at   1.298225  2.758344  0.219846
      ESP Fit Center  664 is at   0.906847  2.920458  0.219846
      ESP Fit Center  665 is at   0.486847  2.975752  0.219846
      ESP Fit Center  666 is at   0.066847  2.920458  0.219846
      ESP Fit Center  667 is at  -0.324531  2.758344  0.219846
      ESP Fit Center  668 is at   1.018390  2.707346 -0.185338
      ESP Fit Center  669 is at   0.595573  2.803851 -0.185338
      ESP Fit Center  670 is at   0.163096  2.771442 -0.185338
      ESP Fit Center  671 is at  -0.240614  2.612997 -0.185338
      ESP Fit Center  672 is at   1.016357  2.416397 -0.533277
      ESP Fit Center  673 is at   0.596456  2.535869 -0.533277
      ESP Fit Center  674 is at   0.161752  2.495587 -0.533277
      ESP Fit Center  675 is at  -0.229046  2.300993 -0.533277
      ESP Fit Center  676 is at   0.906847  2.080458 -0.800261
      ESP Fit Center  677 is at   0.486847  2.192997 -0.800261
      ESP Fit Center  678 is at   0.066847  2.080458 -0.800261
      ESP Fit Center  679 is at  -0.240614  1.772997 -0.800261
      ESP Fit Center  680 is at   0.704255  1.729559 -0.968093
      ESP Fit Center  681 is at   0.269439  1.729559 -0.968093
      ESP Fit Center  682 is at   1.930523 -0.176042  2.278253
      ESP Fit Center  683 is at   2.340213 -0.176042  2.237902
      ESP Fit Center  684 is at   2.135368  0.178760  2.237902
      ESP Fit Center  685 is at   2.135368 -0.530844  2.237902
      ESP Fit Center  686 is at   2.734158 -0.176042  2.118400
      ESP Fit Center  687 is at   2.626491  0.225776  2.118400
      ESP Fit Center  688 is at   2.332341  0.519926  2.118400
      ESP Fit Center  689 is at   1.930523  0.627593  2.118400
      ESP Fit Center  690 is at   1.930523 -0.979677  2.118400
      ESP Fit Center  691 is at   2.332341 -0.872011  2.118400
      ESP Fit Center  692 is at   2.626491 -0.577860  2.118400
      ESP Fit Center  693 is at   3.097220 -0.176042  1.924339
      ESP Fit Center  694 is at   2.038172  0.985678  1.924339
      ESP Fit Center  695 is at   2.792723 -0.962041  1.924339
      ESP Fit Center  696 is at   3.018436 -0.597502  1.924339
      ESP Fit Center  697 is at   3.355297 -0.594394  1.663177
      ESP Fit Center  698 is at   1.227431  0.755003 -1.567833
      ESP Fit Center  699 is at   1.528705  0.519926 -1.761894
      ESP Fit Center  700 is at   1.234554  0.225776 -1.761894
      ESP Fit Center  701 is at   1.126888 -0.176042 -1.761894
      ESP Fit Center  702 is at   1.234554 -0.577860 -1.761894
      ESP Fit Center  703 is at   1.528705 -0.872011 -1.761894
      ESP Fit Center  704 is at   2.626491 -0.577860 -1.761894
      ESP Fit Center  705 is at   2.340213 -0.176042 -1.881396
      ESP Fit Center  706 is at   1.725678  0.178760 -1.881396
      ESP Fit Center  707 is at   1.520833 -0.176042 -1.881396
      ESP Fit Center  708 is at   1.725678 -0.530844 -1.881396
      ESP Fit Center  709 is at   2.135368 -0.530844 -1.881396
      ESP Fit Center  710 is at   1.930523 -0.176042 -1.921747
      ESP Fit Center  711 is at   2.175707 -1.461419  2.023463
      ESP Fit Center  712 is at   2.583214 -1.461419  1.980632
      ESP Fit Center  713 is at   1.768200 -1.461419  1.980632
      ESP Fit Center  714 is at   1.971954 -1.814330  1.980632
      ESP Fit Center  715 is at   2.379460 -1.814330  1.980632
      ESP Fit Center  716 is at   2.972911 -1.461419  1.854012
      ESP Fit Center  717 is at   2.866106 -1.062817  1.854012
      ESP Fit Center  718 is at   1.378503 -1.461419  1.854012
      ESP Fit Center  719 is at   1.485308 -1.860021  1.854012
      ESP Fit Center  720 is at   1.777105 -2.151818  1.854012
      ESP Fit Center  721 is at   2.175707 -2.258623  1.854012
      ESP Fit Center  722 is at   2.574309 -2.151818  1.854012
      ESP Fit Center  723 is at   2.866106 -1.860021  1.854012
      ESP Fit Center  724 is at   3.327766 -1.461419  1.649136
      ESP Fit Center  725 is at   3.249970 -1.045247  1.649136
      ESP Fit Center  726 is at   1.196207 -2.067900  1.649136
      ESP Fit Center  727 is at   1.481436 -2.380782  1.649136
      ESP Fit Center  728 is at   1.860431 -2.569499  1.649136
      ESP Fit Center  729 is at   2.282006 -2.608564  1.649136
      ESP Fit Center  730 is at   2.689224 -2.492700  1.649136
      ESP Fit Center  731 is at   3.027089 -2.237556  1.649136
      ESP Fit Center  732 is at   3.249970 -1.877591  1.649136
      ESP Fit Center  733 is at   3.632271 -1.461419  1.374959
      ESP Fit Center  734 is at   3.573270 -1.051058  1.374959
      ESP Fit Center  735 is at   0.778144 -1.871781  1.374959
      ESP Fit Center  736 is at   0.950368 -2.248897  1.374959
      ESP Fit Center  737 is at   1.221861 -2.562217  1.374959
      ESP Fit Center  738 is at   1.570629 -2.786356  1.374959
      ESP Fit Center  739 is at   1.968416 -2.903157  1.374959
      ESP Fit Center  740 is at   2.382998 -2.903157  1.374959
      ESP Fit Center  741 is at   2.780786 -2.786356  1.374959
      ESP Fit Center  742 is at   3.129554 -2.562217  1.374959
      ESP Fit Center  743 is at   3.401047 -2.248897  1.374959
      ESP Fit Center  744 is at   3.573270 -1.871781  1.374959
      ESP Fit Center  745 is at   0.597495 -2.086277  1.043463
      ESP Fit Center  746 is at   0.802474 -2.459132  1.043463
      ESP Fit Center  747 is at   1.093737 -2.769296  1.043463
      ESP Fit Center  748 is at   1.452985 -2.997281  1.043463
      ESP Fit Center  749 is at   1.857644 -3.128763  1.043463
      ESP Fit Center  750 is at   2.282288 -3.155479  1.043463
      ESP Fit Center  751 is at   2.700235 -3.075752  1.043463
      ESP Fit Center  752 is at   3.085225 -2.894590  1.043463
      ESP Fit Center  753 is at   3.413066 -2.623376  1.043463
      ESP Fit Center  754 is at   3.663159 -2.279152  1.043463
      ESP Fit Center  755 is at   3.819790 -1.883548  1.043463
      ESP Fit Center  756 is at   0.358372 -1.876214  0.669136
      ESP Fit Center  757 is at   0.496237 -2.270209  0.669136
[...]
 4967 Fit      -0.319615
 4968 Fit      -0.332562
 4969 Fit      -0.325394
 4970 Fit      -0.318951
 4971 Fit      -0.317080
 4972 Fit      -0.344615
 4973 Fit      -0.336588
 4974 Fit      -0.328862
 4975 Fit      -0.322763
 4976 Fit      -0.335003
 4977 Fit      -0.327284
 4978 Fit      -0.321822
 4979 Fit      -0.326078
 4980 Fit      -0.321857
 4981 Fit      -0.326226
 4982 Fit      -0.381144
 4983 Fit      -0.395049
 4984 Fit      -0.403377
 4985 Fit      -0.394805
 4986 Fit      -0.383122
 4987 Fit      -0.371256
 4988 Fit      -0.362185
 4989 Fit      -0.377330
 4990 Fit      -0.386950
 4991 Fit      -0.383477
 4992 Fit      -0.372047
 4993 Fit      -0.374178
 4994 Fit      -0.340094
 4995 Fit      -0.350462
 4996 Fit      -0.341694
 4997 Fit      -0.334006
 4998 Fit      -0.353931
 4999 Fit      -0.343685
 5000 Fit      -0.336226
 5001 Fit      -0.332867
 5002 Fit      -0.329075
 5003 Fit      -0.369544
 5004 Fit      -0.357730
 5005 Fit      -0.346722
 5006 Fit      -0.337751
 5007 Fit      -0.331316
 5008 Fit      -0.327623
 5009 Fit      -0.326828
 5010 Fit      -0.324967
 5011 Fit      -0.374532
 5012 Fit      -0.361547
 5013 Fit      -0.349982
 5014 Fit      -0.340304
 5015 Fit      -0.332634
 5016 Fit      -0.326958
 5017 Fit      -0.323250
 5018 Fit      -0.321553
 5019 Fit      -0.322040
 5020 Fit      -0.321346
 5021 Fit      -0.384442
 5022 Fit      -0.369681
 5023 Fit      -0.356729
 5024 Fit      -0.345754
 5025 Fit      -0.336712
 5026 Fit      -0.329479
 5027 Fit      -0.323925
 5028 Fit      -0.319944
 5029 Fit      -0.317508
 5030 Fit      -0.316717
 5031 Fit      -0.317852
 5032 Fit      -0.401372
 5033 Fit      -0.383723
 5034 Fit      -0.368373
 5035 Fit      -0.355324
 5036 Fit      -0.344399
 5037 Fit      -0.335386
 5038 Fit      -0.328077
 5039 Fit      -0.322289
 5040 Fit      -0.317871
 5041 Fit      -0.314725
 5042 Fit      -0.312847
 5043 Fit      -0.312401
 5044 Fit      -0.313808
 5045 Fit      -0.419754
 5046 Fit      -0.399165
 5047 Fit      -0.381445
 5048 Fit      -0.366409
 5049 Fit      -0.353746
 5050 Fit      -0.343149
 5051 Fit      -0.334348
 5052 Fit      -0.327113
 5053 Fit      -0.321244
 5054 Fit      -0.316573
 5055 Fit      -0.312961
 5056 Fit      -0.310322
 5057 Fit      -0.308671
 5058 Fit      -0.308210
 5059 Fit      -0.423950
 5060 Fit      -0.402328
 5061 Fit      -0.384014
 5062 Fit      -0.368584
 5063 Fit      -0.355613
 5064 Fit      -0.344731
 5065 Fit      -0.335636
 5066 Fit      -0.328077
 5067 Fit      -0.321842
 5068 Fit      -0.316745
 5069 Fit      -0.312618
 5070 Fit      -0.309314
 5071 Fit      -0.306725
 5072 Fit      -0.304831
 5073 Fit      -0.420546
 5074 Fit      -0.398836
 5075 Fit      -0.380655
 5076 Fit      -0.365445
 5077 Fit      -0.352718
 5078 Fit      -0.342075
 5079 Fit      -0.333198
 5080 Fit      -0.325822
 5081 Fit      -0.319723
 5082 Fit      -0.314696
 5083 Fit      -0.310544
 5084 Fit      -0.307075
 5085 Fit      -0.304106
 5086 Fit      -0.439817
 5087 Fit      -0.414964
 5088 Fit      -0.394135
 5089 Fit      -0.376730
 5090 Fit      -0.362175
 5091 Fit      -0.349993
 5092 Fit      -0.339798
 5093 Fit      -0.331281
 5094 Fit      -0.324187
 5095 Fit      -0.318286
 5096 Fit      -0.313366
 5097 Fit      -0.309205
 5098 Fit      -0.305568
 5099 Fit      -0.302184
 5100 Fit      -0.441956
 5101 Fit      -0.416634
 5102 Fit      -0.395476
 5103 Fit      -0.377824
 5104 Fit      -0.363078
 5105 Fit      -0.350744
 5106 Fit      -0.340426
 5107 Fit      -0.331805
 5108 Fit      -0.324614
 5109 Fit      -0.318614
 5110 Fit      -0.313575
 5111 Fit      -0.309253
 5112 Fit      -0.305367
 5113 Fit      -0.301562
 5114 Fit      -0.426047
 5115 Fit      -0.403195
 5116 Fit      -0.384182
 5117 Fit      -0.368340
 5118 Fit      -0.355119
 5119 Fit      -0.344080
 5120 Fit      -0.334870
 5121 Fit      -0.327198
 5122 Fit      -0.320804
 5123 Fit      -0.315440
 5124 Fit      -0.310842
 5125 Fit      -0.306702
 5126 Fit      -0.302624
 5127 Fit      -0.434070
 5128 Fit      -0.410239
 5129 Fit      -0.390366
 5130 Fit      -0.373777
 5131 Fit      -0.359912
 5132 Fit      -0.348324
 5133 Fit      -0.338648
 5134 Fit      -0.330584
 5135 Fit      -0.323867
 5136 Fit      -0.318247
 5137 Fit      -0.313461
 5138 Fit      -0.309214
 5139 Fit      -0.305137
 5140 Fit      -0.434498
 5141 Fit      -0.410526
 5142 Fit      -0.390475
 5143 Fit      -0.373740
 5144 Fit      -0.359791
 5145 Fit      -0.348189
 5146 Fit      -0.338569
 5147 Fit      -0.330617
 5148 Fit      -0.324055
 5149 Fit      -0.318607
 5150 Fit      -0.313987
 5151 Fit      -0.309873
 5152 Fit      -0.417788
 5153 Fit      -0.396473
 5154 Fit      -0.378554
 5155 Fit      -0.363623
 5156 Fit      -0.351270
 5157 Fit      -0.341124
 5158 Fit      -0.332853
 5159 Fit      -0.326152
 5160 Fit      -0.320728
 5161 Fit      -0.316296
 5162 Fit      -0.312598
 5163 Fit      -0.422751
 5164 Fit      -0.401564
 5165 Fit      -0.383160
 5166 Fit      -0.367609
 5167 Fit      -0.354716
 5168 Fit      -0.344200
 5169 Fit      -0.335761
 5170 Fit      -0.329110
 5171 Fit      -0.323987
 5172 Fit      -0.320205
 5173 Fit      -0.412222
 5174 Fit      -0.393298
 5175 Fit      -0.376341
 5176 Fit      -0.361960
 5177 Fit      -0.350232
 5178 Fit      -0.341006
 5179 Fit      -0.334063
 5180 Fit      -0.329227
 5181 Fit      -0.326514
 5182 Fit      -0.408228
 5183 Fit      -0.391310
 5184 Fit      -0.374660
 5185 Fit      -0.360318
 5186 Fit      -0.349062
 5187 Fit      -0.341066
 5188 Fit      -0.336390
 5189 Fit      -0.335375
 5190 Fit      -0.347852
 5191 Fit      -0.356832
 5192 Fit      -0.400486
 5193 Fit      -0.388450
 5194 Fit      -0.372775
 5195 Fit      -0.358796
 5196 Fit      -0.349231
 5197 Fit      -0.345295
 5198 Fit      -0.357814
 5199 Fit      -0.368809
 5200 Fit      -0.381749
 5201 Fit      -0.383402
 5202 Fit      -0.370920
 5203 Fit      -0.358648
 5204 Fit      -0.369437
 5205 Fit      -0.310311
 5206 Fit      -0.303083
 5207 Fit      -0.300667
 5208 Fit      -0.308124
 5209 Fit      -0.313027
 5210 Fit      -0.297140
 5211 Fit      -0.292440
 5212 Fit      -0.292196
 5213 Fit      -0.297031
 5214 Fit      -0.306430
 5215 Fit      -0.316309
 5216 Fit      -0.305432
 5217 Fit      -0.292621
 5218 Fit      -0.287517
 5219 Fit      -0.284700
 5220 Fit      -0.284765
 5221 Fit      -0.288197
 5222 Fit      -0.295139
 5223 Fit      -0.305194
 5224 Fit      -0.308859
 5225 Fit      -0.299685
 5226 Fit      -0.289734
 5227 Fit      -0.284395
 5228 Fit      -0.280372
 5229 Fit      -0.278233
 5230 Fit      -0.278511
 5231 Fit      -0.281596
 5232 Fit      -0.287706
 5233 Fit      -0.296816
 5234 Fit      -0.308515
 5235 Fit      -0.314100
 5236 Fit      -0.303965
 5237 Fit      -0.296129
 5238 Fit      -0.283448
 5239 Fit      -0.278694
 5240 Fit      -0.275022
 5241 Fit      -0.272935
 5242 Fit      -0.272802
 5243 Fit      -0.274892
 5244 Fit      -0.279418
 5245 Fit      -0.286518
 5246 Fit      -0.296175
 5247 Fit      -0.318239
 5248 Fit      -0.273703
 5249 Fit      -0.270092
 5250 Fit      -0.268176
 5251 Fit      -0.268201
 5252 Fit      -0.269474
 5253 Fit      -0.265950
 5254 Fit      -0.264176
 5255 Fit      -0.265426
 5256 Fit      -0.262226
 5257 Fit      -0.262134
 5258 Fit      -0.263125
 5259 Fit      -0.353629
 5260 Fit      -0.275217
 5261 Fit      -0.274377
 5262 Fit      -0.332353
 5263 Fit      -0.353270
 5264 Fit      -0.377087
 5265 Fit      -0.280183
 5266 Fit      -0.281949
 5267 Fit      -0.286888
 5268 Fit      -0.306564
 5269 Fit      -0.321360
 5270 Fit      -0.339308
 5271 Fit      -0.360023
 5272 Fit      -0.382801
 5273 Fit      -0.286525
 5274 Fit      -0.287975
 5275 Fit      -0.292828
 5276 Fit      -0.301109
 5277 Fit      -0.312768
 5278 Fit      -0.327607
 5279 Fit      -0.345176
 5280 Fit      -0.364658
 5281 Fit      -0.384761
 5282 Fit      -0.293317
 5283 Fit      -0.295995
 5284 Fit      -0.302872
 5285 Fit      -0.313827
 5286 Fit      -0.328403
 5287 Fit      -0.345649
 5288 Fit      -0.363935
 5289 Fit      -0.380857
 5290 Fit      -0.300516
 5291 Fit      -0.303732
 5292 Fit      -0.311739
 5293 Fit      -0.324039
 5294 Fit      -0.339260
 5295 Fit      -0.355013
 5296 Fit      -0.368050
 5297 Fit      -0.375246
 5298 Fit      -0.357459
 5299 Fit      -0.308470
 5300 Fit      -0.313722
 5301 Fit      -0.324974
 5302 Fit      -0.339329
 5303 Fit      -0.351585
 5304 Fit      -0.356555
 5305 Fit      -0.352579
 5306 Fit      -0.342272
 5307 Fit      -0.319446
 5308 Fit      -0.317338
 5309 Fit      -0.326076
 5310 Fit      -0.338097
 5311 Fit      -0.338998
 5312 Fit      -0.328931
 5313 Fit      -0.327397
 5314 Fit      -0.293254
 5315 Fit      -0.282341
 5316 Fit      -0.282745
 5317 Fit      -0.298227
 5318 Fit      -0.287303
 5319 Fit      -0.273342
 5320 Fit      -0.273188
 5321 Fit      -0.275624
 5322 Fit      -0.309738
 5323 Fit      -0.293970
 5324 Fit      -0.282984
 5325 Fit      -0.276384
 5326 Fit      -0.265899
 5327 Fit      -0.265737
 5328 Fit      -0.267069
 5329 Fit      -0.269874
 5330 Fit      -0.274349
 5331 Fit      -0.304778
 5332 Fit      -0.289527
 5333 Fit      -0.278834
 5334 Fit      -0.271875
 5335 Fit      -0.267792
 5336 Fit      -0.259743
 5337 Fit      -0.259740
 5338 Fit      -0.260725
 5339 Fit      -0.262643
 5340 Fit      -0.265563
 5341 Fit      -0.269686
 5342 Fit      -0.275827
 5343 Fit      -0.268351
 5344 Fit      -0.263625
 5345 Fit      -0.260926
 5346 Fit      -0.254684
 5347 Fit      -0.254879
 5348 Fit      -0.255786
 5349 Fit      -0.257341
 5350 Fit      -0.259565
 5351 Fit      -0.262563
 5352 Fit      -0.266524
 5353 Fit      -0.265944
 5354 Fit      -0.260505
 5355 Fit      -0.257169
 5356 Fit      -0.255361
 5357 Fit      -0.250600
 5358 Fit      -0.250974
 5359 Fit      -0.251870
 5360 Fit      -0.253226
 5361 Fit      -0.255038
 5362 Fit      -0.257358
 5363 Fit      -0.260292
 5364 Fit      -0.263990
 5365 Fit      -0.258050
 5366 Fit      -0.254242
 5367 Fit      -0.251991
 5368 Fit      -0.250873
 5369 Fit      -0.247418
 5370 Fit      -0.247953
 5371 Fit      -0.248898
 5372 Fit      -0.250197
 5373 Fit      -0.251837
 5374 Fit      -0.253845
 5375 Fit      -0.256293
 5376 Fit      -0.259280
 5377 Fit      -0.262923
 5378 Fit      -0.252382
 5379 Fit      -0.249603
 5380 Fit      -0.248051
 5381 Fit      -0.247398
 5382 Fit      -0.245106
 5383 Fit      -0.245797
 5384 Fit      -0.246850
 5385 Fit      -0.248210
 5386 Fit      -0.249864
 5387 Fit      -0.251833
 5388 Fit      -0.254179
 5389 Fit      -0.256992
 5390 Fit      -0.260374
 5391 Fit      -0.248728
 5392 Fit      -0.246434
 5393 Fit      -0.245249
 5394 Fit      -0.244875
 5395 Fit      -0.243656
 5396 Fit      -0.244454
 5397 Fit      -0.245583
 5398 Fit      -0.246991
 5399 Fit      -0.248663
 5400 Fit      -0.250619
 5401 Fit      -0.252913
 5402 Fit      -0.255629
 5403 Fit      -0.258870
 5404 Fit      -0.262725
 5405 Fit      -0.246259
 5406 Fit      -0.244356
 5407 Fit      -0.243450
 5408 Fit      -0.243277
 5409 Fit      -0.243075
 5410 Fit      -0.243951
 5411 Fit      -0.245156
 5412 Fit      -0.246639
 5413 Fit      -0.248386
 5414 Fit      -0.250419
 5415 Fit      -0.252796
 5416 Fit      -0.255605
 5417 Fit      -0.258964
 5418 Fit      -0.262994
 5419 Fit      -0.245249
 5420 Fit      -0.243487
 5421 Fit      -0.242692
 5422 Fit      -0.242614
 5423 Fit      -0.243381
 5424 Fit      -0.244306
 5425 Fit      -0.245585
 5426 Fit      -0.247169
 5427 Fit      -0.249046
 5428 Fit      -0.251245
 5429 Fit      -0.253835
 5430 Fit      -0.256922
 5431 Fit      -0.260653
 5432 Fit      -0.265203
 5433 Fit      -0.245692
 5434 Fit      -0.243833
 5435 Fit      -0.242988
 5436 Fit      -0.242899
 5437 Fit      -0.244595
 5438 Fit      -0.245513
 5439 Fit      -0.246825
 5440 Fit      -0.248483
 5441 Fit      -0.250479
 5442 Fit      -0.252848
 5443 Fit      -0.255670
 5444 Fit      -0.259070
 5445 Fit      -0.263224
 5446 Fit      -0.268360
 5447 Fit      -0.247381
 5448 Fit      -0.245326
 5449 Fit      -0.244341
 5450 Fit      -0.244160
 5451 Fit      -0.246739
 5452 Fit      -0.247655
 5453 Fit      -0.249061
 5454 Fit      -0.250909
 5455 Fit      -0.253200
 5456 Fit      -0.255992
 5457 Fit      -0.259401
 5458 Fit      -0.263607
 5459 Fit      -0.268863
 5460 Fit      -0.275510
 5461 Fit      -0.250965
 5462 Fit      -0.248256
 5463 Fit      -0.246847
 5464 Fit      -0.246417
 5465 Fit      -0.249843
 5466 Fit      -0.250744
 5467 Fit      -0.252301
 5468 Fit      -0.254462
 5469 Fit      -0.257250
 5470 Fit      -0.260767
 5471 Fit      -0.265199
 5472 Fit      -0.270825
 5473 Fit      -0.278025
 5474 Fit      -0.256575
 5475 Fit      -0.252731
 5476 Fit      -0.250586
 5477 Fit      -0.249723
 5478 Fit      -0.253945
 5479 Fit      -0.254799
 5480 Fit      -0.256538
 5481 Fit      -0.259113
 5482 Fit      -0.262582
 5483 Fit      -0.267105
 5484 Fit      -0.272955
 5485 Fit      -0.280506
 5486 Fit      -0.264050
 5487 Fit      -0.258742
 5488 Fit      -0.255603
 5489 Fit      -0.254128
 5490 Fit      -0.259103
 5491 Fit      -0.259947
 5492 Fit      -0.262087
 5493 Fit      -0.265486
 5494 Fit      -0.270265
 5495 Fit      -0.276691
 5496 Fit      -0.285124
 5497 Fit      -0.295904
 5498 Fit      -0.349790
 5499 Fit      -0.334878
 5500 Fit      -0.285861
 5501 Fit      -0.274753
 5502 Fit      -0.267041
 5503 Fit      -0.262232
 5504 Fit      -0.259749
 5505 Fit      -0.265405
 5506 Fit      -0.266399
 5507 Fit      -0.269550
 5508 Fit      -0.274854
 5509 Fit      -0.282527
 5510 Fit      -0.292793
 5511 Fit      -0.305455
 5512 Fit      -0.333523
 5513 Fit      -0.321016
 5514 Fit      -0.305650
 5515 Fit      -0.290908
 5516 Fit      -0.279176
 5517 Fit      -0.271240
 5518 Fit      -0.266846
 5519 Fit      -0.272980
 5520 Fit      -0.274542
 5521 Fit      -0.280073
 5522 Fit      -0.289324
 5523 Fit      -0.301443
 5524 Fit      -0.313613
 5525 Fit      -0.320990
 5526 Fit      -0.319654
 5527 Fit      -0.309871
 5528 Fit      -0.296081
 5529 Fit      -0.283715
 5530 Fit      -0.275855
 5531 Fit      -0.282020
 5532 Fit      -0.286005
 5533 Fit      -0.297194
 5534 Fit      -0.305628
 5535 Fit      -0.300631
 5536 Fit      -0.288274
 5537 Fit      -0.292786
 5538 Fit      -0.308536
 5539 Fit      -0.299189
 5540 Fit      -0.287875
 5541 Fit      -0.293395
 5542 Fit      -0.280674
 5543 Fit      -0.274347
 5544 Fit      -0.291554
 5545 Fit      -0.276848
 5546 Fit      -0.268072
 5547 Fit      -0.264468
 5548 Fit      -0.290638
 5549 Fit      -0.274839
 5550 Fit      -0.264474
 5551 Fit      -0.258724
 5552 Fit      -0.257102
 5553 Fit      -0.298753
 5554 Fit      -0.279308
 5555 Fit      -0.265784
 5556 Fit      -0.257085
 5557 Fit      -0.252538
 5558 Fit      -0.251759
 5559 Fit      -0.286330
 5560 Fit      -0.270122
 5561 Fit      -0.258875
 5562 Fit      -0.251774
 5563 Fit      -0.248319
 5564 Fit      -0.248230
 5565 Fit      -0.299539
 5566 Fit      -0.279691
 5567 Fit      -0.265261
 5568 Fit      -0.255245
 5569 Fit      -0.248992
 5570 Fit      -0.246099
 5571 Fit      -0.246344
 5572 Fit      -0.301277
 5573 Fit      -0.280885
 5574 Fit      -0.265962
 5575 Fit      -0.255537
 5576 Fit      -0.248968
 5577 Fit      -0.245847
 5578 Fit      -0.245949
 5579 Fit      -0.286749
 5580 Fit      -0.270352
 5581 Fit      -0.258746
 5582 Fit      -0.251272
 5583 Fit      -0.247497
 5584 Fit      -0.247167
 5585 Fit      -0.293647
 5586 Fit      -0.276275
 5587 Fit      -0.263718
 5588 Fit      -0.255422
 5589 Fit      -0.250984
 5590 Fit      -0.250150
 5591 Fit      -0.311643
 5592 Fit      -0.290509
 5593 Fit      -0.274594
 5594 Fit      -0.263589
 5595 Fit      -0.257132
 5596 Fit      -0.254939
 5597 Fit      -0.307887
 5598 Fit      -0.288922
 5599 Fit      -0.274896
 5600 Fit      -0.265940
 5601 Fit      -0.261930
 5602 Fit      -0.331622
 5603 Fit      -0.310752
 5604 Fit      -0.292502
 5605 Fit      -0.279217
 5606 Fit      -0.271820
 5607 Fit      -0.319992
 5608 Fit      -0.301317
 5609 Fit      -0.287056
 5610 Fit      -0.270174
 5611 Fit      -0.271706
 5612 Fit      -0.278111
 5613 Fit      -0.288920
 5614 Fit      -0.264049
 5615 Fit      -0.261783
 5616 Fit      -0.263420
 5617 Fit      -0.268890
 5618 Fit      -0.278076
 5619 Fit      -0.290663
 5620 Fit      -0.260837
 5621 Fit      -0.256410
 5622 Fit      -0.255419
 5623 Fit      -0.257764
 5624 Fit      -0.263423
 5625 Fit      -0.272405
 5626 Fit      -0.284643
 5627 Fit      -0.260202
 5628 Fit      -0.254076
 5629 Fit      -0.251086
 5630 Fit      -0.251027
 5631 Fit      -0.253817
 5632 Fit      -0.259473
 5633 Fit      -0.268071
 5634 Fit      -0.279688
 5635 Fit      -0.294275
 5636 Fit      -0.260157
 5637 Fit      -0.252882
 5638 Fit      -0.248858
 5639 Fit      -0.247750
 5640 Fit      -0.249408
 5641 Fit      -0.253814
 5642 Fit      -0.261054
 5643 Fit      -0.271278
 5644 Fit      -0.284646
 5645 Fit      -0.261861
 5646 Fit      -0.253548
 5647 Fit      -0.248585
 5648 Fit      -0.246507
 5649 Fit      -0.247087
 5650 Fit      -0.250252
 5651 Fit      -0.256051
 5652 Fit      -0.264625
 5653 Fit      -0.276185
 5654 Fit      -0.290958
 5655 Fit      -0.255113
 5656 Fit      -0.249583
 5657 Fit      -0.246987
 5658 Fit      -0.247033
 5659 Fit      -0.249614
 5660 Fit      -0.254747
 5661 Fit      -0.262558
 5662 Fit      -0.273256
 5663 Fit      -0.287110
 5664 Fit      -0.304382
 5665 Fit      -0.256509
 5666 Fit      -0.251058
 5667 Fit      -0.248727
 5668 Fit      -0.249204
 5669 Fit      -0.252381
 5670 Fit      -0.258295
 5671 Fit      -0.267099
 5672 Fit      -0.279038
 5673 Fit      -0.294420
 5674 Fit      -0.313523
 5675 Fit      -0.258467
 5676 Fit      -0.253622
 5677 Fit      -0.252117
 5678 Fit      -0.253664
 5679 Fit      -0.258192
 5680 Fit      -0.265781
 5681 Fit      -0.276631
 5682 Fit      -0.291018
 5683 Fit      -0.309221
 5684 Fit      -0.331349
 5685 Fit      -0.261991
 5686 Fit      -0.258031
 5687 Fit      -0.257557
 5688 Fit      -0.260336
 5689 Fit      -0.266337
 5690 Fit      -0.275663
 5691 Fit      -0.288505
 5692 Fit      -0.305055
 5693 Fit      -0.325366
 5694 Fit      -0.266112
 5695 Fit      -0.264363
 5696 Fit      -0.266611
 5697 Fit      -0.272734
 5698 Fit      -0.282773
 5699 Fit      -0.296828
 5700 Fit      -0.314904
 5701 Fit      -0.336668
 5702 Fit      -0.273354
 5703 Fit      -0.274738
 5704 Fit      -0.280776
 5705 Fit      -0.291375
 5706 Fit      -0.306416
 5707 Fit      -0.325501
 5708 Fit      -0.285729
 5709 Fit      -0.293093
 5710 Fit      -0.306140
 -----------------------------------------------------------------
 Leave Link  602 at Tue Feb 28 15:58:47 2023, MaxMem=   134217728 cpu:         1.2

 Test job not archived.
 1\1\NSC-N285\SP\RHF\6-31G(d)\C3H4O6P1(3-)\X_GABOA\28-Feb-2023\0\\#HF/6
 -31G* scrf=smd SCF=tight Test Pop=MK iop(6/33=2) iop(6/42=6) # iop(6/5
 0=1)\\RESP charges\\-3,1\P,0,-2.011391,-0.03863,0.064628\O,0,-2.185902
 ,-1.554782,-0.051506\O,0,-2.685308,0.579679,1.285869\O,0,-2.283739,0.7
 02418,-1.246362\O,0,-0.394213,0.204762,0.40086\C,0,0.54489,-0.261528,-
 0.57143\H,0,0.290741,0.177876,-1.545034\H,0,0.486847,-1.352997,-0.6546
 62\C,0,1.930523,0.176042,-0.178253\O,0,2.175707,1.461419,-0.063463\C,0
 ,2.872028,-0.772717,0.018134\O,0,4.181295,-0.374376,0.338668\H,0,4.112
 242,0.592575,0.356274\H,0,2.733671,-1.841759,-0.049232\\Version=ES64L-
 G09RevE.01\State=1-A\HF=-906.2440028\RMSD=8.993e-09\Dipole=3.9081165,-
 1.5661994,-0.7210832\Quadrupole=-38.5552947,16.8663658,21.6889289,-3.7
 92642,0.4093313,0.8803364\PG=C01 [X(C3H4O6P1)]\\@


 CHEMISTRY BEGAN BY SAYING IT WOULD CHANGE THE BASER
 METALS INTO GOLD.  BY NOT DOING THAT IT HAS DONE MUCH
 GREATER THINGS.  --  RALPH WALDO EMERSON
 Job cpu time:       0 days  0 hours  0 minutes 40.2 seconds.
 File lengths (MBytes):  RWF=     34 Int=      0 D2E=      0 Chk=      8 Scr=      1
 Normal termination of Gaussian 09 at Tue Feb 28 15:58:47 2023.
