 Entering Gaussian System, Link 0=/software/sse/easybuild/prefix/software/Gaussian/09.E.01-avx-nsc1-bdist/g09/g09.orig
 Input=h2-3ov.wrap
 Output=h2-3ov.log
 Initial command:
 /software/sse/easybuild/prefix/software/Gaussian/09.E.01-avx-nsc1-bdist/g09/l1.exe "/scratch/local/Gau-80716.inp" -scrdir="/scratch/local/"
 Entering Link 1 = /software/sse/easybuild/prefix/software/Gaussian/09.E.01-avx-nsc1-bdist/g09/l1.exe PID=     80717.
  
 Copyright (c) 1988,1990,1992,1993,1995,1998,2003,2009,2015,
            Gaussian, Inc.  All Rights Reserved.
  
 This is part of the Gaussian(R) 09 program.  It is based on
 the Gaussian(R) 03 system (copyright 2003, Gaussian, Inc.),
 the Gaussian(R) 98 system (copyright 1998, Gaussian, Inc.),
 the Gaussian(R) 94 system (copyright 1995, Gaussian, Inc.),
 the Gaussian 92(TM) system (copyright 1992, Gaussian, Inc.),
 the Gaussian 90(TM) system (copyright 1990, Gaussian, Inc.),
 the Gaussian 88(TM) system (copyright 1988, Gaussian, Inc.),
 the Gaussian 86(TM) system (copyright 1986, Carnegie Mellon
 University), and the Gaussian 82(TM) system (copyright 1983,
 Carnegie Mellon University). Gaussian is a federally registered
 trademark of Gaussian, Inc.
  
 This software contains proprietary and confidential information,
 including trade secrets, belonging to Gaussian, Inc.
  
 This software is provided under written license and may be
 used, copied, transmitted, or stored only in accord with that
 written license.
  
 The following legend is applicable only to US Government
 contracts under FAR:
  
                    RESTRICTED RIGHTS LEGEND
  
 Use, reproduction and disclosure by the US Government is
 subject to restrictions as set forth in subparagraphs (a)
 and (c) of the Commercial Computer Software - Restricted
 Rights clause in FAR 52.227-19.
  
 Gaussian, Inc.
 340 Quinnipiac St., Bldg. 40, Wallingford CT 06492
  
  
 ---------------------------------------------------------------
 Warning -- This program may not be used in any manner that
 competes with the business of Gaussian, Inc. or will provide
 assistance to any competitor of Gaussian, Inc.  The licensee
 of this program is prohibited from giving any competitor of
 Gaussian, Inc. access to this program.  By using this program,
 the user acknowledges that Gaussian, Inc. is engaged in the
 business of creating and licensing software in the field of
 computational chemistry and represents and warrants to the
 licensee that it is not a competitor of Gaussian, Inc. and that
 it will not use this program in any manner prohibited above.
 ---------------------------------------------------------------
  

 Cite this work as:
 Gaussian 09, Revision E.01,
 M. J. Frisch, G. W. Trucks, H. B. Schlegel, G. E. Scuseria, 
 M. A. Robb, J. R. Cheeseman, G. Scalmani, V. Barone, B. Mennucci, 
 G. A. Petersson, H. Nakatsuji, M. Caricato, X. Li, H. P. Hratchian, 
 A. F. Izmaylov, J. Bloino, G. Zheng, J. L. Sonnenberg, M. Hada, 
 M. Ehara, K. Toyota, R. Fukuda, J. Hasegawa, M. Ishida, T. Nakajima, 
 Y. Honda, O. Kitao, H. Nakai, T. Vreven, J. A. Montgomery, Jr., 
 J. E. Peralta, F. Ogliaro, M. Bearpark, J. J. Heyd, E. Brothers, 
 K. N. Kudin, V. N. Staroverov, T. Keith, R. Kobayashi, J. Normand, 
 K. Raghavachari, A. Rendell, J. C. Burant, S. S. Iyengar, J. Tomasi, 
 M. Cossi, N. Rega, J. M. Millam, M. Klene, J. E. Knox, J. B. Cross, 
 V. Bakken, C. Adamo, J. Jaramillo, R. Gomperts, R. E. Stratmann, 
 O. Yazyev, A. J. Austin, R. Cammi, C. Pomelli, J. W. Ochterski, 
 R. L. Martin, K. Morokuma, V. G. Zakrzewski, G. A. Voth, 
 P. Salvador, J. J. Dannenberg, S. Dapprich, A. D. Daniels, 
 O. Farkas, J. B. Foresman, J. V. Ortiz, J. Cioslowski, 
 and D. J. Fox, Gaussian, Inc., Wallingford CT, 2013.
 
 ******************************************
 Gaussian 09:  ES64L-G09RevE.01 30-Nov-2015
                13-Dec-2022 
 ******************************************
 %nproc=16
 Will use up to   16 processors via shared memory.
 %chk=3ov-h2
 -----------------------
 #HF/6-31G* scrf=smd opt
 -----------------------
 1/14=-1,18=20,19=15,38=1/1,3;
 2/9=110,12=2,17=6,18=5,40=1/2;
 3/5=1,6=6,7=1,11=9,16=1,25=1,30=1,70=32201,71=1,72=1/1,2,3;
 4//1;
 5/5=2,38=5/2;
 6/7=2,8=2,9=2,10=2,28=1/1;
 7//1,2,3,16;
 1/14=-1,18=20,19=15/3(2);
 2/9=110/2;
 99//99;
 2/9=110/2;
 3/5=1,6=6,7=1,11=9,16=1,25=1,30=1,70=32205,71=1/1,2,3;
 4/5=5,16=3,69=1/1;
 5/5=2,38=5/2;
 7//1,2,3,16;
 1/14=-1,18=20,19=15/3(-5);
 2/9=110/2;
 6/7=2,8=2,9=2,10=2,19=2,28=1/1;
 99/9=1/99;
 ---------------------
 remark line goes here
 ---------------------
 Symbolic Z-matrix:
 Charge = -1 Multiplicity = 1
 O                    -22.743   -11.309   -25.221 
 C                    -22.145   -10.345   -24.657 
 O                    -22.039   -10.165   -23.396 
 C                    -21.338   -9.346    -25.524 
 C                    -21.876   -8.588    -26.663 
 O                    -22.297   -7.373    -26.48 
 C                    -21.99    -9.098    -28.065 
 H                    -20.812   -8.684    -24.821 
 H                    -20.552   -9.948    -26.004 
 H                    -21.043   -9.151    -28.618 
 H                    -22.645   -8.474    -28.68 
 C                    -22.588   -10.502   -27.986 
 H                    -22.732   -10.906   -28.993 
 H                    -23.562   -10.496   -27.486 
 H                    -21.929   -11.186   -27.442 
 H                    -20.90463  -8.84677  -27.02958 
 H                    -22.62621  -7.28208  -25.59352 
 

 GradGradGradGradGradGradGradGradGradGradGradGradGradGradGradGradGradGrad
 Berny optimization.
 Initialization pass.
                           ----------------------------
                           !    Initial Parameters    !
                           ! (Angstroms and Degrees)  !
 --------------------------                            --------------------------
 ! Name  Definition              Value          Derivative Info.                !
 --------------------------------------------------------------------------------
 ! R1    R(1,2)                  1.2669         estimate D2E/DX2                !
 ! R2    R(2,3)                  1.2782         estimate D2E/DX2                !
 ! R3    R(2,4)                  1.5495         estimate D2E/DX2                !
 ! R4    R(4,5)                  1.4701         estimate D2E/DX2                !
 ! R5    R(4,8)                  1.0996         estimate D2E/DX2                !
 ! R6    R(4,9)                  1.1003         estimate D2E/DX2                !
 ! R7    R(5,6)                  1.2988         estimate D2E/DX2                !
 ! R8    R(5,7)                  1.4962         estimate D2E/DX2                !
 ! R9    R(5,16)                 1.07           estimate D2E/DX2                !
 ! R10   R(6,17)                 0.95           estimate D2E/DX2                !
 ! R11   R(7,10)                 1.0979         estimate D2E/DX2                !
 ! R12   R(7,11)                 1.0939         estimate D2E/DX2                !
 ! R13   R(7,12)                 1.5281         estimate D2E/DX2                !
 ! R14   R(12,13)                1.0945         estimate D2E/DX2                !
 ! R15   R(12,14)                1.0949         estimate D2E/DX2                !
 ! R16   R(12,15)                1.0946         estimate D2E/DX2                !
 ! A1    A(1,2,3)              125.8385         estimate D2E/DX2                !
 ! A2    A(1,2,4)              119.1649         estimate D2E/DX2                !
 ! A3    A(3,2,4)              114.7102         estimate D2E/DX2                !
 ! A4    A(2,4,5)              125.1226         estimate D2E/DX2                !
 ! A5    A(2,4,8)              106.2338         estimate D2E/DX2                !
 ! A6    A(2,4,9)              105.272          estimate D2E/DX2                !
 ! A7    A(5,4,8)              111.0979         estimate D2E/DX2                !
 ! A8    A(5,4,9)              101.8608         estimate D2E/DX2                !
 ! A9    A(8,4,9)              105.461          estimate D2E/DX2                !
 ! A10   A(4,5,6)              119.4574         estimate D2E/DX2                !
 ! A11   A(4,5,7)              125.317          estimate D2E/DX2                !
 ! A12   A(4,5,16)              78.9606         estimate D2E/DX2                !
 ! A13   A(6,5,7)              115.2256         estimate D2E/DX2                !
 ! A14   A(6,5,16)             124.664          estimate D2E/DX2                !
 ! A15   A(7,5,16)              70.471          estimate D2E/DX2                !
 ! A16   A(5,6,17)             109.4712         estimate D2E/DX2                !
 ! A17   A(5,7,10)             115.0049         estimate D2E/DX2                !
 ! A18   A(5,7,11)             112.2089         estimate D2E/DX2                !
 ! A19   A(5,7,12)             107.1306         estimate D2E/DX2                !
 ! A20   A(10,7,11)            105.1193         estimate D2E/DX2                !
 ! A21   A(10,7,12)            108.6164         estimate D2E/DX2                !
 ! A22   A(11,7,12)            108.5936         estimate D2E/DX2                !
 ! A23   A(7,12,13)            110.0631         estimate D2E/DX2                !
 ! A24   A(7,12,14)            111.5131         estimate D2E/DX2                !
 ! A25   A(7,12,15)            111.361          estimate D2E/DX2                !
 ! A26   A(13,12,14)           107.7667         estimate D2E/DX2                !
 ! A27   A(13,12,15)           107.8067         estimate D2E/DX2                !
 ! A28   A(14,12,15)           108.1834         estimate D2E/DX2                !
 ! D1    D(1,2,4,5)             55.3882         estimate D2E/DX2                !
 ! D2    D(1,2,4,8)           -173.0692         estimate D2E/DX2                !
 ! D3    D(1,2,4,9)            -61.5189         estimate D2E/DX2                !
 ! D4    D(3,2,4,5)           -130.4001         estimate D2E/DX2                !
 ! D5    D(3,2,4,8)              1.1426         estimate D2E/DX2                !
 ! D6    D(3,2,4,9)            112.6928         estimate D2E/DX2                !
 ! D7    D(2,4,5,6)             95.8451         estimate D2E/DX2                !
 ! D8    D(2,4,5,7)            -84.1746         estimate D2E/DX2                !
 ! D9    D(2,4,5,16)          -140.4209         estimate D2E/DX2                !
 ! D10   D(8,4,5,6)            -33.7782         estimate D2E/DX2                !
 ! D11   D(8,4,5,7)            146.202          estimate D2E/DX2                !
 ! D12   D(8,4,5,16)            89.9557         estimate D2E/DX2                !
 ! D13   D(9,4,5,6)           -145.679          estimate D2E/DX2                !
 ! D14   D(9,4,5,7)             34.3013         estimate D2E/DX2                !
 ! D15   D(9,4,5,16)           -21.9451         estimate D2E/DX2                !
 ! D16   D(4,5,6,17)           -30.0313         estimate D2E/DX2                !
 ! D17   D(7,5,6,17)           149.9865         estimate D2E/DX2                !
 ! D18   D(16,5,6,17)         -127.1072         estimate D2E/DX2                !
 ! D19   D(4,5,7,10)           -74.7371         estimate D2E/DX2                !
 ! D20   D(4,5,7,11)           165.1773         estimate D2E/DX2                !
 ! D21   D(4,5,7,12)            46.084          estimate D2E/DX2                !
 ! D22   D(6,5,7,10)           105.2439         estimate D2E/DX2                !
 ! D23   D(6,5,7,11)           -14.8417         estimate D2E/DX2                !
 ! D24   D(6,5,7,12)          -133.935          estimate D2E/DX2                !
 ! D25   D(16,5,7,10)          -14.7561         estimate D2E/DX2                !
 ! D26   D(16,5,7,11)         -134.8417         estimate D2E/DX2                !
 ! D27   D(16,5,7,12)          106.065          estimate D2E/DX2                !
 ! D28   D(5,7,12,13)          177.6313         estimate D2E/DX2                !
 ! D29   D(5,7,12,14)           58.0841         estimate D2E/DX2                !
 ! D30   D(5,7,12,15)          -62.869          estimate D2E/DX2                !
 ! D31   D(10,7,12,13)         -57.5788         estimate D2E/DX2                !
 ! D32   D(10,7,12,14)        -177.1261         estimate D2E/DX2                !
 ! D33   D(10,7,12,15)          61.9208         estimate D2E/DX2                !
 ! D34   D(11,7,12,13)          56.2316         estimate D2E/DX2                !
 ! D35   D(11,7,12,14)         -63.3157         estimate D2E/DX2                !
 ! D36   D(11,7,12,15)         175.7312         estimate D2E/DX2                !
 --------------------------------------------------------------------------------
 Trust Radius=3.00D-01 FncErr=1.00D-07 GrdErr=1.00D-07
 Number of steps in this run=     90 maximum allowed number of steps=    102.
 GradGradGradGradGradGradGradGradGradGradGradGradGradGradGradGradGradGrad

                          Input orientation:                          
 ---------------------------------------------------------------------
 Center     Atomic      Atomic             Coordinates (Angstroms)
 Number     Number       Type             X           Y           Z
 ---------------------------------------------------------------------
      1          8           0      -22.743000  -11.309000  -25.221000
      2          6           0      -22.145000  -10.345000  -24.657000
      3          8           0      -22.039000  -10.165000  -23.396000
      4          6           0      -21.338000   -9.346000  -25.524000
      5          6           0      -21.876000   -8.588000  -26.663000
      6          8           0      -22.297000   -7.373000  -26.480000
      7          6           0      -21.990000   -9.098000  -28.065000
      8          1           0      -20.812000   -8.684000  -24.821000
      9          1           0      -20.552000   -9.948000  -26.004000
     10          1           0      -21.043000   -9.151000  -28.618000
     11          1           0      -22.645000   -8.474000  -28.680000
     12          6           0      -22.588000  -10.502000  -27.986000
     13          1           0      -22.732000  -10.906000  -28.993000
     14          1           0      -23.562000  -10.496000  -27.486000
     15          1           0      -21.929000  -11.186000  -27.442000
     16          1           0      -20.904630   -8.846771  -27.029576
     17          1           0      -22.626211   -7.282077  -25.593516
 ---------------------------------------------------------------------
                    Distance matrix (angstroms):
                    1          2          3          4          5
     1  O    0.000000
     2  C    1.266884   0.000000
     3  O    2.266049   1.278185   0.000000
     4  C    2.432941   1.549496   2.385487   0.000000
     5  C    3.199202   2.680195   3.631362   1.470146   0.000000
     6  O    4.156452   3.489873   4.168079   2.392978   1.298828
     7  C    3.680199   3.632286   4.789619   2.635012   1.496229
     8  H    3.283198   2.136049   2.393641   1.099604   2.129384
     9  H    2.695532   2.123598   3.009970   1.100273   2.009193
    10  H    4.368818   4.281304   5.411977   3.114143   2.198382
    11  H    4.473423   4.464882   5.580983   3.525474   2.161630
    12  C    2.884528   3.362014   4.634983   2.993373   2.433242
    13  H    3.793483   4.411370   5.688211   4.051024   3.396286
    14  H    2.542038   3.167638   4.376893   3.180899   2.675890
    15  H    2.368663   2.917218   4.174285   2.722794   2.712795
    16  H    3.565547   3.067951   4.028324   1.644323   1.070000
    17  H    4.045802   3.238846   3.672212   2.433947   1.847173
                    6          7          8          9         10
     6  O    0.000000
     7  C    2.362647   0.000000
     8  H    2.583840   3.476006   0.000000
     9  H    3.146780   2.652935   1.750653   0.000000
    10  H    3.050384   1.097919   3.832579   2.776560   0.000000
    11  H    2.484614   1.093904   4.277367   3.703282   1.740281
    12  C    3.484732   1.528091   4.059129   2.894916   2.147475
    13  H    4.357348   2.163472   5.101889   3.821555   2.464421
    14  H    3.516446   2.181932   4.236516   3.399519   3.071776
    15  H    3.949663   2.179815   3.791746   2.344487   2.511811
    16  H    2.100650   1.520936   2.216502   1.545594   1.623204
    17  H    0.950000   3.132184   2.419407   3.402645   3.891906
                   11         12         13         14         15
    11  H    0.000000
    12  C    2.144218   0.000000
    13  H    2.453602   1.094532   0.000000
    14  H    2.520914   1.094857   1.768629   0.000000
    15  H    3.065982   1.094565   1.768844   1.773337   0.000000
    16  H    2.427292   2.547207   3.381529   3.160679   2.586778
    17  H    3.308688   4.011651   4.969960   3.845322   4.375341
                   16         17
    16  H    0.000000
    17  H    2.733931   0.000000
 Stoichiometry    C5H9O3(1-)
 Framework group  C1[X(C5H9O3)]
 Deg. of freedom    45
 Full point group                 C1      NOp   1
 Largest Abelian subgroup         C1      NOp   1
 Largest concise Abelian subgroup C1      NOp   1
                         Standard orientation:                         
 ---------------------------------------------------------------------
 Center     Atomic      Atomic             Coordinates (Angstroms)
 Number     Number       Type             X           Y           Z
 ---------------------------------------------------------------------
      1          8           0        1.466836    1.366386   -0.359181
      2          6           0        1.608878    0.158410   -0.004761
      3          8           0        2.698308   -0.509093   -0.041332
      4          6           0        0.421644   -0.575788    0.667823
      5          6           0       -0.925018   -0.709451    0.093398
      6          8           0       -1.234847   -1.785568   -0.564580
      7          6           0       -2.014617    0.310748    0.196681
      8          1           0        0.809868   -1.550333    0.997480
      9          1           0        0.218737   -0.013252    1.591393
     10          1           0       -2.499704    0.373782    1.179608
     11          1           0       -2.827076    0.121058   -0.510817
     12          6           0       -1.392555    1.668141   -0.128255
     13          1           0       -2.160555    2.447727   -0.107676
     14          1           0       -0.937842    1.673333   -1.124207
     15          1           0       -0.621834    1.938219    0.600525
     16          1           0       -1.157803   -0.537784    1.123564
     17          1           0       -0.456155   -2.138914   -0.978447
 ---------------------------------------------------------------------
 Rotational constants (GHZ):      2.9417228      1.5068881      1.0927484
 Standard basis: 6-31G(d) (6D, 7F)
 There are   138 symmetry adapted cartesian basis functions of A   symmetry.
 There are   138 symmetry adapted basis functions of A   symmetry.
   138 basis functions,   260 primitive gaussians,   138 cartesian basis functions
    32 alpha electrons       32 beta electrons
       nuclear repulsion energy       391.1818063534 Hartrees.
 NAtoms=   17 NActive=   17 NUniq=   17 SFac= 1.00D+00 NAtFMM=   60 NAOKFM=F Big=F
 Integral buffers will be    131072 words long.
 Raffenetti 1 integral format.
 Two-electron integral symmetry is turned on.
 ------------------------------------------------------------------------------
 Polarizable Continuum Model (PCM)
 =================================
 Model                : PCM (using non-symmetric T matrix).
 Atomic radii         : SMD-Coulomb.
 Polarization charges : Total charges.
 Charge compensation  : None.
 Solution method      : On-the-fly selection.
 Cavity type          : VdW (van der Waals Surface) (Alpha=1.000).
 Cavity algorithm     : GePol (No added spheres)
                        Default sphere list used, NSphG=   17.
                        Lebedev-Laikov grids with approx.  5.0 points / Ang**2.
                        Smoothing algorithm: York/Karplus (Gamma=1.0000).
                        Polarization charges: spherical gaussians, with
                                              point-specific exponents (IZeta= 3).
                        Self-potential: point-specific (ISelfS= 7).
                        Self-field    : sphere-specific E.n sum rule (ISelfD= 2).
 1st derivatives      : Analytical E(r).r(x)/FMM algorithm (CHGder, D1EAlg=3).
                        Cavity 1st derivative terms included.
 Solvent              : Water, Eps=  78.355300 Eps(inf)=   1.777849
 ------------------------------------------------------------------------------
 Spheres list:
 ISph  on   Nord     Re0    Alpha      Xe            Ye            Ze
    1   O      1    1.5200  1.000      1.466836      1.366386     -0.359181
    2   C      2    1.8500  1.000      1.608878      0.158410     -0.004761
    3   O      3    1.5200  1.000      2.698308     -0.509093     -0.041332
    4   C      4    1.8500  1.000      0.421644     -0.575788      0.667823
    5   C      5    1.8500  1.000     -0.925018     -0.709451      0.093398
    6   O      6    1.5200  1.000     -1.234847     -1.785568     -0.564580
    7   C      7    1.8500  1.000     -2.014617      0.310748      0.196681
    8   H      8    1.2000  1.000      0.809868     -1.550333      0.997480
    9   H      9    1.2000  1.000      0.218737     -0.013252      1.591393
   10   H     10    1.2000  1.000     -2.499704      0.373782      1.179608
   11   H     11    1.2000  1.000     -2.827076      0.121058     -0.510817
   12   C     12    1.8500  1.000     -1.392555      1.668141     -0.128255
   13   H     13    1.2000  1.000     -2.160555      2.447727     -0.107676
   14   H     14    1.2000  1.000     -0.937842      1.673333     -1.124207
   15   H     15    1.2000  1.000     -0.621834      1.938219      0.600525
   16   H     16    1.2000  1.000     -1.157803     -0.537784      1.123564
   17   H     17    1.2000  1.000     -0.456155     -2.138914     -0.978447
 ------------------------------------------------------------------------------
 ------------------------------------------------------------------------------
 Atomic radii for non-electrostatic terms: SMD-CDS.
 ------------------------------------------------------------------------------
 Nuclear repulsion after PCM non-electrostatic terms =      391.1897984616 Hartrees.
 One-electron integrals computed using PRISM.
 NBasis=   138 RedAO= T EigKep=  2.91D-03  NBF=   138
 NBsUse=   138 1.00D-06 EigRej= -1.00D+00 NBFU=   138
 ExpMin= 1.61D-01 ExpMax= 5.48D+03 ExpMxC= 8.25D+02 IAcc=1 IRadAn=         1 AccDes= 0.00D+00
 Harris functional with IExCor=  205 and IRadAn=       1 diagonalized for initial guess.
 HarFok:  IExCor=  205 AccDes= 0.00D+00 IRadAn=         1 IDoV= 1 UseB2=F ITyADJ=14
 ICtDFT=  3500011 ScaDFX=  1.000000  1.000000  1.000000  1.000000
 FoFCou: FMM=F IPFlag=           0 FMFlag=      100000 FMFlg1=           0
         NFxFlg=           0 DoJE=T BraDBF=F KetDBF=T FulRan=T
         wScrn=  0.000000 ICntrl=     500 IOpCl=  0 I1Cent=   200000004 NGrid=           0
         NMat0=    1 NMatS0=      1 NMatT0=    0 NMatD0=    1 NMtDS0=    0 NMtDT0=    0
 Petite list used in FoFCou.
 Keep R1 ints in memory in canonical form, NReq=50653711.
 Requested convergence on RMS density matrix=1.00D-08 within 128 cycles.
 Requested convergence on MAX density matrix=1.00D-06.
 Requested convergence on             energy=1.00D-06.
 No special actions if energy rises.
 Inv3:  Mode=1 IEnd=     4177200.
 Iteration    1 A*A^-1 deviation from unit magnitude is 4.88D-15 for   1170.
 Iteration    1 A*A^-1 deviation from orthogonality  is 3.80D-15 for    672    390.
 Iteration    1 A^-1*A deviation from unit magnitude is 4.88D-15 for   1170.
 Iteration    1 A^-1*A deviation from orthogonality  is 1.43D-12 for   1023    914.
 Error on total polarization charges =  0.04018
 SCF Done:  E(RHF) =  -419.128708149     A.U. after   14 cycles
            NFock= 14  Conv=0.47D-08     -V/T= 2.0002
 SMD-CDS (non-electrostatic) energy       (kcal/mol) =       5.02
 (included in total energy above)

 **********************************************************************

            Population analysis using the SCF density.

 **********************************************************************

 Orbital symmetries:
       Occupied  (A) (A) (A) (A) (A) (A) (A) (A) (A) (A) (A) (A)
                 (A) (A) (A) (A) (A) (A) (A) (A) (A) (A) (A) (A)
                 (A) (A) (A) (A) (A) (A) (A) (A)
       Virtual   (A) (A) (A) (A) (A) (A) (A) (A) (A) (A) (A) (A)
                 (A) (A) (A) (A) (A) (A) (A) (A) (A) (A) (A) (A)
                 (A) (A) (A) (A) (A) (A) (A) (A) (A) (A) (A) (A)
                 (A) (A) (A) (A) (A) (A) (A) (A) (A) (A) (A) (A)
                 (A) (A) (A) (A) (A) (A) (A) (A) (A) (A) (A) (A)
                 (A) (A) (A) (A) (A) (A) (A) (A) (A) (A) (A) (A)
                 (A) (A) (A) (A) (A) (A) (A) (A) (A) (A) (A) (A)
                 (A) (A) (A) (A) (A) (A) (A) (A) (A) (A) (A) (A)
                 (A) (A) (A) (A) (A) (A) (A) (A) (A) (A)
 The electronic state is 1-A.
 Alpha  occ. eigenvalues --  -20.55739 -20.48516 -20.48420 -11.32070 -11.22856
 Alpha  occ. eigenvalues --  -11.21681 -11.21620 -11.19243  -1.40416  -1.34882
 Alpha  occ. eigenvalues --   -1.24710  -1.09417  -0.98821  -0.89180  -0.78220
 Alpha  occ. eigenvalues --   -0.74410  -0.67092  -0.66046  -0.63849  -0.59350
 Alpha  occ. eigenvalues --   -0.59211  -0.56534  -0.53692  -0.52492  -0.51144
 Alpha  occ. eigenvalues --   -0.50105  -0.47694  -0.46449  -0.40394  -0.39134
 Alpha  occ. eigenvalues --   -0.38827  -0.28709
 Alpha virt. eigenvalues --    0.20784   0.24902   0.27564   0.29891   0.31131
 Alpha virt. eigenvalues --    0.31856   0.33327   0.34071   0.36525   0.38849
 Alpha virt. eigenvalues --    0.42486   0.43033   0.45716   0.51869   0.54753
 Alpha virt. eigenvalues --    0.57733   0.61151   0.75121   0.77594   0.79536
 Alpha virt. eigenvalues --    0.82037   0.85243   0.85859   0.87378   0.89692
 Alpha virt. eigenvalues --    0.92536   0.93083   0.98190   0.99167   1.01209
 Alpha virt. eigenvalues --    1.01799   1.09628   1.11632   1.12617   1.14085
 Alpha virt. eigenvalues --    1.15161   1.16345   1.18726   1.19325   1.22004
 Alpha virt. eigenvalues --    1.24058   1.24501   1.27739   1.28056   1.30125
 Alpha virt. eigenvalues --    1.32507   1.33546   1.36501   1.39770   1.41539
 Alpha virt. eigenvalues --    1.47045   1.51188   1.56122   1.62428   1.72022
 Alpha virt. eigenvalues --    1.74406   1.79850   1.84412   1.85615   1.92221
 Alpha virt. eigenvalues --    1.97112   1.99269   2.02185   2.09367   2.09810
 Alpha virt. eigenvalues --    2.14599   2.16083   2.16808   2.18425   2.21644
 Alpha virt. eigenvalues --    2.25315   2.27852   2.29124   2.31706   2.35230
 Alpha virt. eigenvalues --    2.38521   2.42230   2.46522   2.51137   2.59087
 Alpha virt. eigenvalues --    2.63641   2.67055   2.71028   2.72567   2.74901
 Alpha virt. eigenvalues --    2.80183   2.83772   2.93816   2.99218   3.01917
 Alpha virt. eigenvalues --    3.05070   3.17090   3.17679   3.26722   3.31422
 Alpha virt. eigenvalues --    3.33016   3.38746   3.49832   4.30648   4.39586
 Alpha virt. eigenvalues --    4.57416   4.64511   4.69264   4.84596   4.95496
 Alpha virt. eigenvalues --    5.07442
          Condensed to atoms (all electrons):
               1          2          3          4          5          6
     1  O    8.539884   0.482398  -0.085939  -0.114480   0.007863  -0.000027
     2  C    0.482398   4.094715   0.459397   0.317394  -0.041084   0.000398
     3  O   -0.085939   0.459397   8.593828  -0.109505   0.002801   0.000008
     4  C   -0.114480   0.317394  -0.109505   5.512516   0.297517  -0.050967
     5  C    0.007863  -0.041084   0.002801   0.297517   4.977980   0.211172
     6  O   -0.000027   0.000398   0.000008  -0.050967   0.211172   8.419538
     7  C   -0.000521  -0.003066   0.000010  -0.040621   0.320158  -0.047226
     8  H    0.003418  -0.049572   0.013259   0.384763  -0.033777   0.000316
     9  H    0.003576  -0.049554   0.002623   0.409016  -0.058486   0.005218
    10  H    0.000009  -0.000427   0.000002   0.007080  -0.060183   0.003176
    11  H   -0.000031   0.000083  -0.000001   0.001927  -0.044096   0.002477
    12  C   -0.013733  -0.000723  -0.000030  -0.007689  -0.083757   0.002872
    13  H    0.000755   0.000008   0.000001  -0.000000   0.009234  -0.000101
    14  H    0.002677   0.000346  -0.000005   0.000226  -0.003694   0.000188
    15  H    0.004930  -0.001063  -0.000004  -0.001164  -0.008293   0.000034
    16  H   -0.001119   0.018504  -0.000524  -0.102754   0.375106  -0.041064
    17  H   -0.000013   0.000839   0.000084  -0.006451  -0.029874   0.270823
               7          8          9         10         11         12
     1  O   -0.000521   0.003418   0.003576   0.000009  -0.000031  -0.013733
     2  C   -0.003066  -0.049572  -0.049554  -0.000427   0.000083  -0.000723
     3  O    0.000010   0.013259   0.002623   0.000002  -0.000001  -0.000030
     4  C   -0.040621   0.384763   0.409016   0.007080   0.001927  -0.007689
     5  C    0.320158  -0.033777  -0.058486  -0.060183  -0.044096  -0.083757
     6  O   -0.047226   0.000316   0.005218   0.003176   0.002477   0.002872
     7  C    5.314025   0.004912   0.013346   0.457314   0.376786   0.301287
     8  H    0.004912   0.512155  -0.009603   0.000269  -0.000143   0.000089
     9  H    0.013346  -0.009603   0.566393   0.004196  -0.000493  -0.005308
    10  H    0.457314   0.000269   0.004196   0.586905  -0.041855  -0.058453
    11  H    0.376786  -0.000143  -0.000493  -0.041855   0.530486  -0.016936
    12  C    0.301287   0.000089  -0.005308  -0.058453  -0.016936   5.161287
    13  H   -0.040020   0.000010   0.000331   0.003181  -0.007932   0.367850
    14  H   -0.036536  -0.000039   0.000149   0.003787  -0.002444   0.396600
    15  H   -0.034620   0.000025  -0.001326  -0.003851   0.003838   0.399322
    16  H   -0.198568  -0.023611  -0.071220  -0.076413   0.017655   0.023021
    17  H    0.003582   0.000759   0.000059  -0.000263   0.000296  -0.000304
              13         14         15         16         17
     1  O    0.000755   0.002677   0.004930  -0.001119  -0.000013
     2  C    0.000008   0.000346  -0.001063   0.018504   0.000839
     3  O    0.000001  -0.000005  -0.000004  -0.000524   0.000084
     4  C   -0.000000   0.000226  -0.001164  -0.102754  -0.006451
     5  C    0.009234  -0.003694  -0.008293   0.375106  -0.029874
     6  O   -0.000101   0.000188   0.000034  -0.041064   0.270823
     7  C   -0.040020  -0.036536  -0.034620  -0.198568   0.003582
     8  H    0.000010  -0.000039   0.000025  -0.023611   0.000759
     9  H    0.000331   0.000149  -0.001326  -0.071220   0.000059
    10  H    0.003181   0.003787  -0.003851  -0.076413  -0.000263
    11  H   -0.007932  -0.002444   0.003838   0.017655   0.000296
    12  C    0.367850   0.396600   0.399322   0.023021  -0.000304
    13  H    0.600318  -0.029084  -0.032024  -0.002978   0.000004
    14  H   -0.029084   0.537894  -0.027405   0.000351  -0.000065
    15  H   -0.032024  -0.027405   0.528782   0.003203   0.000017
    16  H   -0.002978   0.000351   0.003203   0.868826   0.003240
    17  H    0.000004  -0.000065   0.000017   0.003240   0.264358
 Mulliken charges:
               1
     1  O   -0.829646
     2  C    0.771408
     3  O   -0.876005
     4  C   -0.496810
     5  C    0.161413
     6  O   -0.776835
     7  C   -0.390241
     8  H    0.196772
     9  H    0.191084
    10  H    0.175526
    11  H    0.180382
    12  C   -0.465395
    13  H    0.130446
    14  H    0.157053
    15  H    0.169597
    16  H    0.208346
    17  H    0.492907
 Sum of Mulliken charges =  -1.00000
 Mulliken charges with hydrogens summed into heavy atoms:
               1
     1  O   -0.829646
     2  C    0.771408
     3  O   -0.876005
     4  C   -0.108954
     5  C    0.369758
     6  O   -0.283928
     7  C   -0.034333
    12  C   -0.008299
 Electronic spatial extent (au):  <R**2>=           1101.2505
 Charge=             -1.0000 electrons
 Dipole moment (field-independent basis, Debye):
    X=             -9.8401    Y=             -2.5921    Z=              2.2131  Tot=             10.4136
 Quadrupole moment (field-independent basis, Debye-Ang):
   XX=            -83.7880   YY=            -60.2020   ZZ=            -47.9694
   XY=             -5.7906   XZ=              0.5312   YZ=              3.5043
 Traceless Quadrupole moment (field-independent basis, Debye-Ang):
   XX=            -19.8016   YY=              3.7845   ZZ=             16.0171
   XY=             -5.7906   XZ=              0.5312   YZ=              3.5043
 Octapole moment (field-independent basis, Debye-Ang**2):
  XXX=            -75.1326  YYY=            -22.1492  ZZZ=             -2.6523  XYY=             -0.1057
  XXY=              9.4733  XXZ=              7.5218  XZZ=              0.6957  YZZ=             -5.0535
  YYZ=             -1.4139  XYZ=              5.0912
 Hexadecapole moment (field-independent basis, Debye-Ang**3):
 XXXX=          -1070.0670 YYYY=           -451.2745 ZZZZ=           -111.1924 XXXY=             25.2339
 XXXZ=              7.7485 YYYX=            -17.6293 YYYZ=             19.8143 ZZZX=             -0.6840
 ZZZY=              9.7086 XXYY=           -258.8138 XXZZ=           -161.4764 YYZZ=            -87.1893
 XXYZ=              1.8189 YYXZ=              1.5055 ZZXY=              1.1895
 N-N= 3.911897984616D+02 E-N=-1.781117376130D+03  KE= 4.190274104359D+02
 D1PCM: PCM CHGder 1st derivatives, ID1Alg=3 FixD1E=F DoIter=F DoCFld=F I1PDM=0.
 Calling FoFJK, ICntrl=      2127 FMM=F ISym2X=0 I1Cent= 0 IOpClX= 0 NMat=1 NMatS=1 NMatT=0.
 ***** Axes restored to original set *****
 -------------------------------------------------------------------
 Center     Atomic                   Forces (Hartrees/Bohr)
 Number     Number              X              Y              Z
 -------------------------------------------------------------------
      1        8           0.012714740    0.028610041    0.031170287
      2        6           0.000876577   -0.007849303    0.021300045
      3        8          -0.011565132   -0.012445361   -0.036221670
      4        6          -0.008390430   -0.064545104    0.049177320
      5        6           0.082734281   -0.073658999   -0.046557071
      6        8          -0.030970540    0.099529139    0.021677770
      7        6          -0.077776515   -0.053540832   -0.040244607
      8        1          -0.007169424    0.000171520   -0.013321510
      9        1          -0.004744163   -0.011064831    0.025218654
     10        1          -0.007057119    0.002399084    0.000732714
     11        1           0.000589266    0.001138616    0.007134147
     12        6          -0.003257661   -0.014626733   -0.027084203
     13        1           0.000275378   -0.002717880    0.002170198
     14        1           0.009403863    0.001504562   -0.004580330
     15        1          -0.008075186    0.007493399   -0.007449179
     16        1           0.052977582    0.095985732    0.018968992
     17        1          -0.000565516    0.003616951   -0.002091557
 -------------------------------------------------------------------
 Cartesian Forces:  Max     0.099529139 RMS     0.034812347

 GradGradGradGradGradGradGradGradGradGradGradGradGradGradGradGradGradGrad
 Berny optimization.
 FormGI is forming the generalized inverse of G from B-inverse, IUseBI=4.
 Internal  Forces:  Max     0.109477680 RMS     0.027120141
 Search for a local minimum.
 Step number   1 out of a maximum of   90
 All quantities printed in internal units (Hartrees-Bohrs-Radians)
 Mixed Optimization -- RFO/linear search
 Second derivative matrix not updated -- first step.
 ITU=  0
     Eigenvalues ---    0.00230   0.00284   0.00394   0.00816   0.01161
     Eigenvalues ---    0.01927   0.03030   0.03136   0.04145   0.04888
     Eigenvalues ---    0.05034   0.05456   0.05536   0.05634   0.07689
     Eigenvalues ---    0.09129   0.11287   0.11622   0.14089   0.16000
     Eigenvalues ---    0.16000   0.16000   0.16000   0.21702   0.22135
     Eigenvalues ---    0.23118   0.23930   0.25000   0.25000   0.27694
     Eigenvalues ---    0.29600   0.32776   0.33652   0.33726   0.33913
     Eigenvalues ---    0.34257   0.34290   0.34294   0.34365   0.35723
     Eigenvalues ---    0.37230   0.57681   0.67520   0.73635   0.77298
 RFO step:  Lambda=-1.51908036D-01 EMin= 2.30000000D-03
 Linear search not attempted -- first point.
 Maximum step size (   0.300) exceeded in Quadratic search.
    -- Step size scaled by   0.584
 Iteration  1 RMS(Cart)=  0.14772267 RMS(Int)=  0.00473004
 Iteration  2 RMS(Cart)=  0.00700202 RMS(Int)=  0.00068864
 Iteration  3 RMS(Cart)=  0.00002990 RMS(Int)=  0.00068838
 Iteration  4 RMS(Cart)=  0.00000001 RMS(Int)=  0.00068838
 Variable       Old X    -DE/DX   Delta X   Delta X   Delta X     New X
                                 (Linear)    (Quad)   (Total)
    R1        2.39406  -0.04169   0.00000  -0.02634  -0.02634   2.36772
    R2        2.41542  -0.03843   0.00000  -0.02528  -0.02528   2.39014
    R3        2.92812   0.00262   0.00000   0.00357   0.00357   2.93169
    R4        2.77817   0.08778   0.00000   0.10076   0.10076   2.87894
    R5        2.07795  -0.01183   0.00000  -0.01414  -0.01414   2.06381
    R6        2.07921  -0.00834   0.00000  -0.00998  -0.00998   2.06923
    R7        2.45443   0.10948   0.00000   0.07736   0.07736   2.53179
    R8        2.82746   0.09139   0.00000   0.11135   0.11135   2.93882
    R9        2.02201   0.01839   0.00000   0.02050   0.02050   2.04251
   R10        1.79524  -0.00144   0.00000  -0.00116  -0.00116   1.79408
   R11        2.07477  -0.00657   0.00000  -0.00782  -0.00782   2.06694
   R12        2.06718  -0.00372   0.00000  -0.00439  -0.00439   2.06279
   R13        2.88767   0.00651   0.00000   0.00849   0.00849   2.89617
   R14        2.06837  -0.00104   0.00000  -0.00123  -0.00123   2.06714
   R15        2.06898  -0.01043   0.00000  -0.01233  -0.01233   2.05665
   R16        2.06843  -0.01323   0.00000  -0.01562  -0.01562   2.05281
    A1        2.19630  -0.02017   0.00000  -0.02896  -0.02903   2.16726
    A2        2.07982   0.01475   0.00000   0.02181   0.02174   2.10156
    A3        2.00207   0.00602   0.00000   0.00912   0.00904   2.01111
    A4        2.18380   0.01241   0.00000   0.01949   0.01906   2.20286
    A5        1.85413  -0.00189   0.00000  -0.00923  -0.00940   1.84473
    A6        1.83734  -0.01665   0.00000  -0.02653  -0.02767   1.80967
    A7        1.93902  -0.01738   0.00000  -0.03745  -0.03711   1.90192
    A8        1.77781   0.02395   0.00000   0.05842   0.05840   1.83621
    A9        1.84064  -0.00093   0.00000  -0.00347  -0.00301   1.83763
   A10        2.08493  -0.02973   0.00000  -0.04268  -0.04408   2.04084
   A11        2.18719   0.05831   0.00000   0.07879   0.07854   2.26574
   A12        1.37812   0.02588   0.00000   0.05546   0.05299   1.43111
   A13        2.01107  -0.02858   0.00000  -0.03609  -0.03668   1.97438
   A14        2.17580  -0.03466   0.00000  -0.09050  -0.09033   2.08547
   A15        1.22995   0.04753   0.00000   0.11213   0.11065   1.34060
   A16        1.91063   0.00717   0.00000   0.01343   0.01343   1.92406
   A17        2.00721  -0.01684   0.00000  -0.02357  -0.02399   1.98322
   A18        1.95842  -0.02365   0.00000  -0.04132  -0.04132   1.91710
   A19        1.86978   0.06930   0.00000   0.11306   0.11348   1.98326
   A20        1.83468   0.01196   0.00000   0.00950   0.00808   1.84276
   A21        1.89571  -0.02384   0.00000  -0.03326  -0.03363   1.86209
   A22        1.89532  -0.02030   0.00000  -0.02949  -0.02878   1.86653
   A23        1.92096   0.00473   0.00000   0.00908   0.00908   1.93005
   A24        1.94627  -0.00305   0.00000  -0.00575  -0.00574   1.94053
   A25        1.94362   0.00063   0.00000   0.00098   0.00098   1.94459
   A26        1.88088  -0.00044   0.00000  -0.00046  -0.00045   1.88043
   A27        1.88158  -0.00273   0.00000  -0.00505  -0.00506   1.87652
   A28        1.88816   0.00076   0.00000   0.00103   0.00103   1.88918
    D1        0.96671   0.01199   0.00000   0.03078   0.03059   0.99730
    D2       -3.02063  -0.00529   0.00000  -0.01998  -0.02019  -3.04082
    D3       -1.07371  -0.01411   0.00000  -0.03879  -0.03840  -1.11211
    D4       -2.27591   0.01676   0.00000   0.04880   0.04862  -2.22729
    D5        0.01994  -0.00052   0.00000  -0.00196  -0.00217   0.01777
    D6        1.96686  -0.00934   0.00000  -0.02078  -0.02037   1.94649
    D7        1.67281  -0.00997   0.00000  -0.04696  -0.04723   1.62558
    D8       -1.46912   0.01130   0.00000   0.03007   0.03042  -1.43870
    D9       -2.45081  -0.04012   0.00000  -0.12734  -0.12834  -2.57915
   D10       -0.58954   0.00108   0.00000  -0.00684  -0.00708  -0.59662
   D11        2.55171   0.02235   0.00000   0.07019   0.07058   2.62229
   D12        1.57002  -0.02906   0.00000  -0.08722  -0.08818   1.48184
   D13       -2.54258  -0.00321   0.00000  -0.01783  -0.01722  -2.55979
   D14        0.59867   0.01806   0.00000   0.05920   0.06044   0.65911
   D15       -0.38301  -0.03335   0.00000  -0.09821  -0.09832  -0.48133
   D16       -0.52415   0.00304   0.00000   0.01768   0.01614  -0.50801
   D17        2.61776  -0.01616   0.00000  -0.05182  -0.04872   2.56903
   D18       -2.21844   0.01279   0.00000   0.03309   0.03154  -2.18690
   D19       -1.30441  -0.02817   0.00000  -0.09022  -0.09060  -1.39501
   D20        2.88289  -0.01323   0.00000  -0.05332  -0.05435   2.82854
   D21        0.80432  -0.01890   0.00000  -0.06542  -0.06567   0.73865
   D22        1.83685  -0.00769   0.00000  -0.01608  -0.01533   1.82152
   D23       -0.25904   0.00725   0.00000   0.02082   0.02093  -0.23811
   D24       -2.33761   0.00158   0.00000   0.00872   0.00961  -2.32800
   D25       -0.25754   0.01086   0.00000   0.04173   0.04186  -0.21569
   D26       -2.35343   0.02580   0.00000   0.07863   0.07812  -2.27531
   D27        1.85118   0.02013   0.00000   0.06653   0.06680   1.91798
   D28        3.10025  -0.00228   0.00000  -0.00643  -0.00638   3.09387
   D29        1.01376  -0.00289   0.00000  -0.00814  -0.00809   1.00567
   D30       -1.09727  -0.00219   0.00000  -0.00616  -0.00611  -1.10338
   D31       -1.00494   0.00593   0.00000   0.01517   0.01496  -0.98998
   D32       -3.09143   0.00533   0.00000   0.01345   0.01325  -3.07818
   D33        1.08072   0.00603   0.00000   0.01544   0.01523   1.09596
   D34        0.98143  -0.00281   0.00000  -0.00607  -0.00593   0.97550
   D35       -1.10507  -0.00342   0.00000  -0.00779  -0.00764  -1.11270
   D36        3.06709  -0.00272   0.00000  -0.00581  -0.00565   3.06143
         Item               Value     Threshold  Converged?
 Maximum Force            0.109478     0.000450     NO 
 RMS     Force            0.027120     0.000300     NO 
 Maximum Displacement     0.573949     0.001800     NO 
 RMS     Displacement     0.149129     0.001200     NO 
 Predicted change in Energy=-7.600610D-02
 GradGradGradGradGradGradGradGradGradGradGradGradGradGradGradGradGradGrad

                          Input orientation:                          
 ---------------------------------------------------------------------
 Center     Atomic      Atomic             Coordinates (Angstroms)
 Number     Number       Type             X           Y           Z
 ---------------------------------------------------------------------
      1          8           0      -22.699566  -11.303406  -24.962251
      2          6           0      -22.112850  -10.300355  -24.493715
      3          8           0      -22.048611  -10.026462  -23.260593
      4          6           0      -21.300737   -9.360347  -25.423042
      5          6           0      -21.832161   -8.626677  -26.647898
      6          8           0      -22.278375   -7.377347  -26.460722
      7          6           0      -22.030223   -9.134131  -28.104526
      8          1           0      -20.812892   -8.640739  -24.762055
      9          1           0      -20.495093   -9.999905  -25.798422
     10          1           0      -21.108691   -9.146580  -28.693573
     11          1           0      -22.711033   -8.469156  -28.639184
     12          6           0      -22.625278  -10.543988  -28.188377
     13          1           0      -22.788009  -10.831338  -29.231223
     14          1           0      -23.584089  -10.597285  -27.676217
     15          1           0      -21.961846  -11.281522  -27.745721
     16          1           0      -20.820369   -8.784019  -26.993953
     17          1           0      -22.612017   -7.276591  -25.577620
 ---------------------------------------------------------------------
                    Distance matrix (angstroms):
                    1          2          3          4          5
     1  O    0.000000
     2  C    1.252945   0.000000
     3  O    2.224852   1.264806   0.000000
     4  C    2.438140   1.551384   2.383110   0.000000
     5  C    3.280042   2.742351   3.671523   1.523468   0.000000
     6  O    4.223358   3.527108   4.160700   2.442303   1.339764
     7  C    3.876554   3.795374   4.925473   2.788132   1.555154
     8  H    3.269466   2.125140   2.387806   1.092123   2.143714
     9  H    2.694067   2.099921   2.975685   1.094992   2.096453
    10  H    4.594077   4.469714   5.583450   3.283131   2.231254
    11  H    4.642515   4.571218   5.638551   3.623082   2.182304
    12  C    3.315136   3.737976   4.988330   3.286714   2.584220
    13  H    4.295905   4.814745   6.069841   4.344886   3.528137
    14  H    2.940510   3.518669   4.709700   3.438096   2.830192
    15  H    2.879655   3.400152   4.658227   3.085905   2.875802
    16  H    3.742526   3.197026   4.121920   1.740882   1.080848
    17  H    4.074504   3.250718   3.639757   2.466858   1.891138
                    6          7          8          9         10
     6  O    0.000000
     7  C    2.418669   0.000000
     8  H    2.574737   3.591301   0.000000
     9  H    3.239838   2.902465   1.738501   0.000000
    10  H    3.079605   1.093779   3.974947   3.080027   0.000000
    11  H    2.474861   1.091583   4.320244   3.914526   1.740505
    12  C    3.623914   1.532586   4.318192   3.247399   2.123207
    13  H    4.457069   2.173523   5.354743   4.211042   2.438768
    14  H    3.681076   2.176871   4.472129   3.663997   3.044200
    15  H    4.122378   2.178235   4.146816   2.754247   2.486820
    16  H    2.094957   1.679195   2.236505   1.735937   1.761615
    17  H    0.949388   3.189701   2.400603   3.456379   3.932685
                   11         12         13         14         15
    11  H    0.000000
    12  C    2.124973   0.000000
    13  H    2.436461   1.093883   0.000000
    14  H    2.493685   1.088332   1.762546   0.000000
    15  H    3.044497   1.086299   1.758389   1.762012   0.000000
    16  H    2.525972   2.789594   3.615038   3.375139   2.847041
    17  H    3.287125   4.182357   5.100590   4.046732   4.600310
                   16         17
    16  H    0.000000
    17  H    2.736483   0.000000
 Stoichiometry    C5H9O3(1-)
 Framework group  C1[X(C5H9O3)]
 Deg. of freedom    45
 Full point group                 C1      NOp   1
 Largest Abelian subgroup         C1      NOp   1
 Largest concise Abelian subgroup C1      NOp   1
                         Standard orientation:                         
 ---------------------------------------------------------------------
 Center     Atomic      Atomic             Coordinates (Angstroms)
 Number     Number       Type             X           Y           Z
 ---------------------------------------------------------------------
      1          8           0        1.514715    1.453870   -0.332529
      2          6           0        1.681980    0.258771    0.004563
      3          8           0        2.781374   -0.359216   -0.091149
      4          6           0        0.537528   -0.530504    0.693088
      5          6           0       -0.861387   -0.758521    0.134521
      6          8           0       -1.060480   -1.885675   -0.561794
      7          6           0       -2.108983    0.169449    0.164201
      8          1           0        0.969567   -1.493783    0.972677
      9          1           0        0.386363    0.003081    1.637250
     10          1           0       -2.645759    0.152055    1.117050
     11          1           0       -2.831833   -0.157474   -0.585574
     12          6           0       -1.789335    1.638335   -0.134157
     13          1           0       -2.705354    2.236073   -0.148219
     14          1           0       -1.307618    1.746848   -1.104023
     15          1           0       -1.133500    2.062800    0.620663
     16          1           0       -1.121203   -0.728078    1.183236
     17          1           0       -0.254359   -2.158525   -0.982577
 ---------------------------------------------------------------------
 Rotational constants (GHZ):      2.8333521      1.3776170      1.0110651
 Standard basis: 6-31G(d) (6D, 7F)
 There are   138 symmetry adapted cartesian basis functions of A   symmetry.
 There are   138 symmetry adapted basis functions of A   symmetry.
   138 basis functions,   260 primitive gaussians,   138 cartesian basis functions
    32 alpha electrons       32 beta electrons
       nuclear repulsion energy       381.5159209394 Hartrees.
 NAtoms=   17 NActive=   17 NUniq=   17 SFac= 1.00D+00 NAtFMM=   60 NAOKFM=F Big=F
 Integral buffers will be    131072 words long.
 Raffenetti 1 integral format.
 Two-electron integral symmetry is turned on.
 ------------------------------------------------------------------------------
 Polarizable Continuum Model (PCM)
 =================================
 Model                : PCM (using non-symmetric T matrix).
 Atomic radii         : SMD-Coulomb.
 Polarization charges : Total charges.
 Charge compensation  : None.
 Solution method      : On-the-fly selection.
 Cavity type          : VdW (van der Waals Surface) (Alpha=1.000).
 Cavity algorithm     : GePol (No added spheres)
                        Default sphere list used, NSphG=   17.
                        Lebedev-Laikov grids with approx.  5.0 points / Ang**2.
                        Smoothing algorithm: York/Karplus (Gamma=1.0000).
                        Polarization charges: spherical gaussians, with
                                              point-specific exponents (IZeta= 3).
                        Self-potential: point-specific (ISelfS= 7).
                        Self-field    : sphere-specific E.n sum rule (ISelfD= 2).
 1st derivatives      : Analytical E(r).r(x)/FMM algorithm (CHGder, D1EAlg=3).
                        Cavity 1st derivative terms included.
 Solvent              : Water, Eps=  78.355300 Eps(inf)=   1.777849
 ------------------------------------------------------------------------------
 Spheres list:
 ISph  on   Nord     Re0    Alpha      Xe            Ye            Ze
    1   O      1    1.5200  1.000      1.514715      1.453870     -0.332529
    2   C      2    1.8500  1.000      1.681980      0.258771      0.004563
    3   O      3    1.5200  1.000      2.781374     -0.359216     -0.091149
    4   C      4    1.8500  1.000      0.537528     -0.530504      0.693088
    5   C      5    1.8500  1.000     -0.861387     -0.758521      0.134521
    6   O      6    1.5200  1.000     -1.060480     -1.885675     -0.561794
    7   C      7    1.8500  1.000     -2.108983      0.169449      0.164201
    8   H      8    1.2000  1.000      0.969567     -1.493783      0.972677
    9   H      9    1.2000  1.000      0.386363      0.003081      1.637250
   10   H     10    1.2000  1.000     -2.645759      0.152055      1.117050
   11   H     11    1.2000  1.000     -2.831833     -0.157474     -0.585574
   12   C     12    1.8500  1.000     -1.789335      1.638335     -0.134157
   13   H     13    1.2000  1.000     -2.705354      2.236073     -0.148219
   14   H     14    1.2000  1.000     -1.307618      1.746848     -1.104023
   15   H     15    1.2000  1.000     -1.133500      2.062800      0.620663
   16   H     16    1.2000  1.000     -1.121203     -0.728078      1.183236
   17   H     17    1.2000  1.000     -0.254359     -2.158525     -0.982577
 ------------------------------------------------------------------------------
 ------------------------------------------------------------------------------
 Atomic radii for non-electrostatic terms: SMD-CDS.
 ------------------------------------------------------------------------------
 Nuclear repulsion after PCM non-electrostatic terms =      381.5241630908 Hartrees.
 One-electron integrals computed using PRISM.
 NBasis=   138 RedAO= T EigKep=  3.33D-03  NBF=   138
 NBsUse=   138 1.00D-06 EigRej= -1.00D+00 NBFU=   138
 Initial guess from the checkpoint file:  "3ov-h2.chk"
 B after Tr=     0.000000   -0.000000    0.000000
         Rot=    0.999180   -0.000450   -0.000211   -0.040475 Ang=  -4.64 deg.
 ExpMin= 1.61D-01 ExpMax= 5.48D+03 ExpMxC= 8.25D+02 IAcc=1 IRadAn=         1 AccDes= 0.00D+00
 Harris functional with IExCor=  205 and IRadAn=       1 diagonalized for initial guess.
 HarFok:  IExCor=  205 AccDes= 0.00D+00 IRadAn=         1 IDoV= 1 UseB2=F ITyADJ=14
 ICtDFT=  3500011 ScaDFX=  1.000000  1.000000  1.000000  1.000000
 FoFCou: FMM=F IPFlag=           0 FMFlag=      100000 FMFlg1=           0
         NFxFlg=           0 DoJE=T BraDBF=F KetDBF=T FulRan=T
         wScrn=  0.000000 ICntrl=     500 IOpCl=  0 I1Cent=   200000004 NGrid=           0
         NMat0=    1 NMatS0=      1 NMatT0=    0 NMatD0=    1 NMtDS0=    0 NMtDT0=    0
 Petite list used in FoFCou.
 Keep R1 ints in memory in canonical form, NReq=50800684.
 Requested convergence on RMS density matrix=1.00D-08 within 128 cycles.
 Requested convergence on MAX density matrix=1.00D-06.
 Requested convergence on             energy=1.00D-06.
 No special actions if energy rises.
 Inv3:  Mode=1 IEnd=     4597932.
 Iteration    1 A*A^-1 deviation from unit magnitude is 2.89D-15 for    758.
 Iteration    1 A*A^-1 deviation from orthogonality  is 3.04D-15 for    758    421.
 Iteration    1 A^-1*A deviation from unit magnitude is 2.89D-15 for   1237.
 Iteration    1 A^-1*A deviation from orthogonality  is 1.47D-11 for    768    758.
 Error on total polarization charges =  0.04015
 SCF Done:  E(RHF) =  -419.193766368     A.U. after   13 cycles
            NFock= 13  Conv=0.26D-08     -V/T= 2.0012
 SMD-CDS (non-electrostatic) energy       (kcal/mol) =       5.17
 (included in total energy above)
 D1PCM: PCM CHGder 1st derivatives, ID1Alg=3 FixD1E=F DoIter=F DoCFld=F I1PDM=0.
 Calling FoFJK, ICntrl=      2127 FMM=F ISym2X=0 I1Cent= 0 IOpClX= 0 NMat=1 NMatS=1 NMatT=0.
 ***** Axes restored to original set *****
 -------------------------------------------------------------------
 Center     Atomic                   Forces (Hartrees/Bohr)
 Number     Number              X              Y              Z
 -------------------------------------------------------------------
      1        8           0.006290346    0.015307790    0.001779501
      2        6          -0.002012957    0.004848443    0.019712067
      3        8          -0.004224430   -0.006708765   -0.021311348
      4        6          -0.021243398   -0.046736468    0.029210606
      5        6           0.089904209   -0.060457416   -0.046127499
      6        8          -0.019842520    0.051876269    0.011059127
      7        6          -0.062479749   -0.037523501   -0.013294045
      8        1          -0.005057363    0.002146725   -0.010772416
      9        1          -0.005822556   -0.002073586    0.008036098
     10        1          -0.003684131    0.004845255    0.007972596
     11        1           0.002204046    0.002162725    0.006161331
     12        6          -0.003735376   -0.002800270   -0.010710734
     13        1           0.001112274   -0.000062225    0.003796947
     14        1           0.002519836   -0.000061653   -0.000770269
     15        1          -0.001429625    0.000815630   -0.000041678
     16        1           0.027891111    0.074084490    0.016189964
     17        1          -0.000389718    0.000336559   -0.000890246
 -------------------------------------------------------------------
 Cartesian Forces:  Max     0.089904209 RMS     0.025952013

 GradGradGradGradGradGradGradGradGradGradGradGradGradGradGradGradGradGrad
 Berny optimization.
 Using GEDIIS/GDIIS optimizer.
 FormGI is forming the generalized inverse of G from B-inverse, IUseBI=4.
 GSVD:  received Info=                   1 from GESDD.
 Internal  Forces:  Max     0.056840508 RMS     0.013363664
 Search for a local minimum.
 Step number   2 out of a maximum of   90
 All quantities printed in internal units (Hartrees-Bohrs-Radians)
 Mixed Optimization -- RFO/linear search
 Update second derivatives using D2CorX and points    1    2
 DE= -6.51D-02 DEPred=-7.60D-02 R= 8.56D-01
 TightC=F SS=  1.41D+00  RLast= 4.17D-01 DXNew= 5.0454D-01 1.2495D+00
 Trust test= 8.56D-01 RLast= 4.17D-01 DXMaxT set to 5.05D-01
 ITU=  1  0
 Use linear search instead of GDIIS.
     Eigenvalues ---    0.00230   0.00264   0.00394   0.00816   0.01186
     Eigenvalues ---    0.01855   0.03030   0.03210   0.03612   0.04844
     Eigenvalues ---    0.05215   0.05473   0.05553   0.05588   0.08619
     Eigenvalues ---    0.09379   0.11652   0.12407   0.14191   0.16000
     Eigenvalues ---    0.16000   0.16000   0.16030   0.21597   0.22930
     Eigenvalues ---    0.23671   0.24668   0.24968   0.27500   0.28339
     Eigenvalues ---    0.29614   0.33580   0.33693   0.33852   0.34117
     Eigenvalues ---    0.34261   0.34281   0.34358   0.34600   0.37155
     Eigenvalues ---    0.53055   0.57682   0.63657   0.73195   0.77559
 RFO step:  Lambda=-9.46548488D-02 EMin= 2.29961673D-03
 Quartic linear search produced a step of  1.22337.
 Iteration  1 RMS(Cart)=  0.13648608 RMS(Int)=  0.03924415
 Iteration  2 RMS(Cart)=  0.04505436 RMS(Int)=  0.00602895
 Iteration  3 RMS(Cart)=  0.00350095 RMS(Int)=  0.00572871
 Iteration  4 RMS(Cart)=  0.00002693 RMS(Int)=  0.00572870
 Iteration  5 RMS(Cart)=  0.00000071 RMS(Int)=  0.00572870
 Variable       Old X    -DE/DX   Delta X   Delta X   Delta X     New X
                                 (Linear)    (Quad)   (Total)
    R1        2.36772  -0.01588  -0.03223   0.00601  -0.02622   2.34151
    R2        2.39014  -0.02244  -0.03093  -0.01177  -0.04270   2.34744
    R3        2.93169  -0.00809   0.00436  -0.04588  -0.04152   2.89017
    R4        2.87894   0.02625   0.12327  -0.04573   0.07754   2.95648
    R5        2.06381  -0.00737  -0.01729  -0.01012  -0.02741   2.03640
    R6        2.06923  -0.00582  -0.01221  -0.00983  -0.02204   2.04719
    R7        2.53179   0.05684   0.09464   0.01963   0.11427   2.64606
    R8        2.93882   0.02542   0.13623  -0.05809   0.07814   3.01695
    R9        2.04251   0.01015   0.02508   0.00913   0.03421   2.07672
   R10        1.79408  -0.00066  -0.00142  -0.00008  -0.00150   1.79259
   R11        2.06694  -0.00746  -0.00957  -0.02001  -0.02958   2.03736
   R12        2.06279  -0.00307  -0.00537  -0.00633  -0.01169   2.05110
   R13        2.89617   0.00298   0.01039   0.00120   0.01159   2.90776
   R14        2.06714  -0.00377  -0.00150  -0.01415  -0.01565   2.05149
   R15        2.05665  -0.00256  -0.01509   0.00795  -0.00714   2.04951
   R16        2.05281  -0.00146  -0.01911   0.01764  -0.00147   2.05134
    A1        2.16726   0.00055  -0.03552   0.04852   0.01254   2.17980
    A2        2.10156  -0.00896   0.02659  -0.08040  -0.05427   2.04728
    A3        2.01111   0.00864   0.01106   0.03388   0.04447   2.05559
    A4        2.20286  -0.01269   0.02332  -0.10729  -0.08535   2.11751
    A5        1.84473   0.00961  -0.01149   0.06689   0.05051   1.89524
    A6        1.80967  -0.00067  -0.03386   0.04208   0.00847   1.81814
    A7        1.90192  -0.00587  -0.04540  -0.01016  -0.05607   1.84585
    A8        1.83621   0.01165   0.07145   0.00951   0.08276   1.91897
    A9        1.83763  -0.00016  -0.00369   0.01846   0.01591   1.85354
   A10        2.04084  -0.00549  -0.05393   0.04110  -0.03204   2.00880
   A11        2.26574   0.00916   0.09609  -0.10682  -0.02598   2.23976
   A12        1.43111   0.00985   0.06483   0.07859   0.16274   1.59385
   A13        1.97438  -0.00500  -0.04488   0.04969  -0.01506   1.95932
   A14        2.08547  -0.02346  -0.11050  -0.14057  -0.26129   1.82418
   A15        1.34060   0.02894   0.13537   0.18075   0.33415   1.67475
   A16        1.92406   0.00105   0.01643  -0.01298   0.00344   1.92750
   A17        1.98322  -0.00959  -0.02935  -0.03643  -0.06826   1.91497
   A18        1.91710  -0.00854  -0.05054  -0.00426  -0.05648   1.86062
   A19        1.98326   0.01869   0.13883  -0.05851   0.08137   2.06463
   A20        1.84276   0.00394   0.00989   0.00623   0.01151   1.85427
   A21        1.86209  -0.00215  -0.04114   0.06017   0.02013   1.88222
   A22        1.86653  -0.00287  -0.03521   0.04263   0.00964   1.87617
   A23        1.93005   0.00128   0.01111  -0.00340   0.00771   1.93775
   A24        1.94053  -0.00023  -0.00703   0.00697  -0.00006   1.94047
   A25        1.94459   0.00014   0.00119  -0.00148  -0.00030   1.94429
   A26        1.88043  -0.00006  -0.00055   0.00225   0.00169   1.88212
   A27        1.87652  -0.00067  -0.00619   0.00319  -0.00302   1.87350
   A28        1.88918  -0.00052   0.00126  -0.00762  -0.00637   1.88282
    D1        0.99730   0.00357   0.03743  -0.01854   0.01953   1.01683
    D2       -3.04082  -0.00640  -0.02470  -0.05803  -0.08414  -3.12496
    D3       -1.11211  -0.00332  -0.04697   0.00318  -0.04304  -1.15514
    D4       -2.22729   0.00653   0.05948   0.00962   0.06975  -2.15754
    D5        0.01777  -0.00343  -0.00265  -0.02987  -0.03393  -0.01615
    D6        1.94649  -0.00036  -0.02493   0.03134   0.00718   1.95366
    D7        1.62558  -0.00522  -0.05778  -0.06729  -0.12118   1.50440
    D8       -1.43870   0.01811   0.03722   0.20781   0.24444  -1.19427
    D9       -2.57915  -0.02740  -0.15700  -0.18135  -0.33704  -2.91618
   D10       -0.59662  -0.00095  -0.00866  -0.05513  -0.06357  -0.66018
   D11        2.62229   0.02237   0.08634   0.21997   0.30205   2.92434
   D12        1.48184  -0.02314  -0.10788  -0.16919  -0.27942   1.20242
   D13       -2.55979  -0.00386  -0.02106  -0.07643  -0.09455  -2.65434
   D14        0.65911   0.01946   0.07394   0.19867   0.27107   0.93018
   D15       -0.48133  -0.02604  -0.12028  -0.19048  -0.31040  -0.79173
   D16       -0.50801   0.00459   0.01974   0.09055   0.11163  -0.39638
   D17        2.56903  -0.01424  -0.05961  -0.14613  -0.19561   2.37342
   D18       -2.18690   0.00880   0.03858   0.04450   0.07161  -2.11529
   D19       -1.39501  -0.02389  -0.11084  -0.21528  -0.31883  -1.71384
   D20        2.82854  -0.01686  -0.06648  -0.19687  -0.26007   2.56847
   D21        0.73865  -0.01957  -0.08033  -0.20941  -0.28414   0.45451
   D22        1.82152  -0.00124  -0.01875   0.05139   0.03900   1.86052
   D23       -0.23811   0.00579   0.02561   0.06980   0.09776  -0.14035
   D24       -2.32800   0.00309   0.01176   0.05726   0.07368  -2.25431
   D25       -0.21569   0.01364   0.05121   0.14165   0.18491  -0.03078
   D26       -2.27531   0.02067   0.09556   0.16006   0.24366  -2.03165
   D27        1.91798   0.01796   0.08172   0.14752   0.21959   2.13757
   D28        3.09387   0.00042  -0.00781   0.01493   0.00698   3.10085
   D29        1.00567  -0.00020  -0.00989   0.00980  -0.00023   1.00544
   D30       -1.10338   0.00052  -0.00747   0.01572   0.00812  -1.09526
   D31       -0.98998  -0.00072   0.01830  -0.02672  -0.00791  -0.99789
   D32       -3.07818  -0.00134   0.01621  -0.03185  -0.01513  -3.09331
   D33        1.09596  -0.00062   0.01864  -0.02593  -0.00678   1.08918
   D34        0.97550   0.00150  -0.00726   0.02701   0.01937   0.99487
   D35       -1.11270   0.00088  -0.00934   0.02188   0.01216  -1.10054
   D36        3.06143   0.00160  -0.00692   0.02780   0.02051   3.08194
         Item               Value     Threshold  Converged?
 Maximum Force            0.056841     0.000450     NO 
 RMS     Force            0.013364     0.000300     NO 
 Maximum Displacement     0.736940     0.001800     NO 
 RMS     Displacement     0.171943     0.001200     NO 
 Predicted change in Energy=-7.977499D-02
 GradGradGradGradGradGradGradGradGradGradGradGradGradGradGradGradGradGrad

                          Input orientation:                          
 ---------------------------------------------------------------------
 Center     Atomic      Atomic             Coordinates (Angstroms)
 Number     Number       Type             X           Y           Z
 ---------------------------------------------------------------------
      1          8           0      -22.728197  -11.190563  -25.225093
      2          6           0      -22.175340  -10.266109  -24.612694
      3          8           0      -22.327701  -10.023219  -23.404026
      4          6           0      -21.199723   -9.388771  -25.398540
      5          6           0      -21.655381   -8.607828  -26.675319
      6          8           0      -22.219601   -7.349598  -26.432081
      7          6           0      -22.080670   -9.196749  -28.096980
      8          1           0      -20.791307   -8.647046  -24.731984
      9          1           0      -20.382705  -10.055989  -25.645318
     10          1           0      -21.246134   -9.142962  -28.777428
     11          1           0      -22.839746   -8.530388  -28.494278
     12          6           0      -22.644677  -10.627208  -28.154753
     13          1           0      -22.932121  -10.891933  -29.167584
     14          1           0      -23.520710  -10.728813  -27.523486
     15          1           0      -21.910529  -11.356010  -27.825767
     16          1           0      -20.612433   -8.394047  -26.947811
     17          1           0      -22.554865   -7.302617  -25.545951
 ---------------------------------------------------------------------
                    Distance matrix (angstroms):
                    1          2          3          4          5
     1  O    0.000000
     2  C    1.239071   0.000000
     3  O    2.199857   1.242210   0.000000
     4  C    2.369128   1.529413   2.377592   0.000000
     5  C    3.150335   2.697160   3.627217   1.564500   0.000000
     6  O    4.058141   3.437756   4.040922   2.503315   1.400233
     7  C    3.555604   3.645921   4.771571   2.845087   1.596502
     8  H    3.234839   2.133341   2.453127   1.077617   2.127138
     9  H    2.639163   2.079424   2.967738   1.083328   2.185813
    10  H    4.359847   4.412470   5.551404   3.388136   2.207423
    11  H    4.216224   4.303586   5.329296   3.606950   2.171941
    12  C    2.984502   3.591218   4.799445   3.349377   2.691714
    13  H    3.959041   4.659549   5.859914   4.412074   3.613667
    14  H    2.474652   3.239880   4.346387   3.420247   2.949139
    15  H    2.731201   3.403212   4.637042   3.204170   2.990173
    16  H    3.907008   3.376398   4.260840   1.932518   1.098952
    17  H    3.905012   3.130062   3.470031   2.492022   1.946309
                    6          7          8          9         10
     6  O    0.000000
     7  C    2.490614   0.000000
     8  H    2.571717   3.645248   0.000000
     9  H    3.364185   3.103551   1.728079   0.000000
    10  H    3.108769   1.078125   4.101027   3.374796   0.000000
    11  H    2.455911   1.085394   4.285390   4.059690   1.730613
    12  C    3.727065   1.538718   4.367078   3.426379   2.132283
    13  H    4.531976   2.178259   5.412685   4.427719   2.460422
    14  H    3.781950   2.179411   4.424465   3.718506   3.043188
    15  H    4.253143   2.182868   4.261765   2.962881   2.498932
    16  H    1.984904   2.029936   2.237386   2.123985   2.076042
    17  H    0.948597   3.212530   2.362238   3.508448   3.942346
                   11         12         13         14         15
    11  H    0.000000
    12  C    2.133069   0.000000
    13  H    2.457391   1.085602   0.000000
    14  H    2.497844   1.084553   1.753883   0.000000
    15  H    3.048687   1.085522   1.749140   1.754262   0.000000
    16  H    2.714972   3.251727   4.067896   3.773673   3.350982
    17  H    3.206432   4.226916   5.112899   4.072140   4.694968
                   16         17
    16  H    0.000000
    17  H    2.632390   0.000000
 Stoichiometry    C5H9O3(1-)
 Framework group  C1[X(C5H9O3)]
 Deg. of freedom    45
 Full point group                 C1      NOp   1
 Largest Abelian subgroup         C1      NOp   1
 Largest concise Abelian subgroup C1      NOp   1
                         Standard orientation:                         
 ---------------------------------------------------------------------
 Center     Atomic      Atomic             Coordinates (Angstroms)
 Number     Number       Type             X           Y           Z
 ---------------------------------------------------------------------
      1          8           0        1.260266    1.453530   -0.250074
      2          6           0        1.599859    0.294645    0.027341
      3          8           0        2.700466   -0.209357   -0.251467
      4          6           0        0.602208   -0.560324    0.810171
      5          6           0       -0.834140   -0.844109    0.258779
      6          8           0       -0.932809   -1.942605   -0.603904
      7          6           0       -2.043996    0.180953    0.073535
      8          1           0        1.043710   -1.527111    0.988096
      9          1           0        0.537925   -0.074943    1.776541
     10          1           0       -2.719041    0.102030    0.910457
     11          1           0       -2.600444   -0.150125   -0.797575
     12          6           0       -1.713804    1.670381   -0.127044
     13          1           0       -2.617234    2.252304   -0.281025
     14          1           0       -1.073114    1.816993   -0.989759
     15          1           0       -1.206334    2.083691    0.738986
     16          1           0       -1.160118   -1.230099    1.234712
     17          1           0       -0.089511   -2.134567   -0.993564
 ---------------------------------------------------------------------
 Rotational constants (GHZ):      2.6709632      1.4964877      1.0663849
 Standard basis: 6-31G(d) (6D, 7F)
 There are   138 symmetry adapted cartesian basis functions of A   symmetry.
 There are   138 symmetry adapted basis functions of A   symmetry.
   138 basis functions,   260 primitive gaussians,   138 cartesian basis functions
    32 alpha electrons       32 beta electrons
       nuclear repulsion energy       383.1542154661 Hartrees.
 NAtoms=   17 NActive=   17 NUniq=   17 SFac= 1.00D+00 NAtFMM=   60 NAOKFM=F Big=F
 Integral buffers will be    131072 words long.
 Raffenetti 1 integral format.
 Two-electron integral symmetry is turned on.
 ------------------------------------------------------------------------------
 Polarizable Continuum Model (PCM)
 =================================
 Model                : PCM (using non-symmetric T matrix).
 Atomic radii         : SMD-Coulomb.
 Polarization charges : Total charges.
 Charge compensation  : None.
 Solution method      : On-the-fly selection.
 Cavity type          : VdW (van der Waals Surface) (Alpha=1.000).
 Cavity algorithm     : GePol (No added spheres)
                        Default sphere list used, NSphG=   17.
                        Lebedev-Laikov grids with approx.  5.0 points / Ang**2.
                        Smoothing algorithm: York/Karplus (Gamma=1.0000).
                        Polarization charges: spherical gaussians, with
                                              point-specific exponents (IZeta= 3).
                        Self-potential: point-specific (ISelfS= 7).
                        Self-field    : sphere-specific E.n sum rule (ISelfD= 2).
 1st derivatives      : Analytical E(r).r(x)/FMM algorithm (CHGder, D1EAlg=3).
                        Cavity 1st derivative terms included.
 Solvent              : Water, Eps=  78.355300 Eps(inf)=   1.777849
 ------------------------------------------------------------------------------
 Spheres list:
 ISph  on   Nord     Re0    Alpha      Xe            Ye            Ze
    1   O      1    1.5200  1.000      1.260266      1.453530     -0.250074
    2   C      2    1.8500  1.000      1.599859      0.294645      0.027341
    3   O      3    1.5200  1.000      2.700466     -0.209357     -0.251467
    4   C      4    1.8500  1.000      0.602208     -0.560324      0.810171
    5   C      5    1.8500  1.000     -0.834140     -0.844109      0.258779
    6   O      6    1.5200  1.000     -0.932809     -1.942605     -0.603904
    7   C      7    1.8500  1.000     -2.043996      0.180953      0.073535
    8   H      8    1.2000  1.000      1.043710     -1.527111      0.988096
    9   H      9    1.2000  1.000      0.537925     -0.074943      1.776541
   10   H     10    1.2000  1.000     -2.719041      0.102030      0.910457
   11   H     11    1.2000  1.000     -2.600444     -0.150125     -0.797575
   12   C     12    1.8500  1.000     -1.713804      1.670381     -0.127044
   13   H     13    1.2000  1.000     -2.617234      2.252304     -0.281025
   14   H     14    1.2000  1.000     -1.073114      1.816993     -0.989759
   15   H     15    1.2000  1.000     -1.206334      2.083691      0.738986
   16   H     16    1.2000  1.000     -1.160118     -1.230099      1.234712
   17   H     17    1.2000  1.000     -0.089511     -2.134567     -0.993564
 ------------------------------------------------------------------------------
 ------------------------------------------------------------------------------
 Atomic radii for non-electrostatic terms: SMD-CDS.
 ------------------------------------------------------------------------------
 Nuclear repulsion after PCM non-electrostatic terms =      383.1619472131 Hartrees.
 One-electron integrals computed using PRISM.
 NBasis=   138 RedAO= T EigKep=  3.30D-03  NBF=   138
 NBsUse=   138 1.00D-06 EigRej= -1.00D+00 NBFU=   138
 Initial guess from the checkpoint file:  "3ov-h2.chk"
 B after Tr=    -0.000000   -0.000000    0.000000
         Rot=    0.999810   -0.010351    0.000062   -0.016507 Ang=  -2.23 deg.
 ExpMin= 1.61D-01 ExpMax= 5.48D+03 ExpMxC= 8.25D+02 IAcc=1 IRadAn=         1 AccDes= 0.00D+00
 Harris functional with IExCor=  205 and IRadAn=       1 diagonalized for initial guess.
 HarFok:  IExCor=  205 AccDes= 0.00D+00 IRadAn=         1 IDoV= 1 UseB2=F ITyADJ=14
 ICtDFT=  3500011 ScaDFX=  1.000000  1.000000  1.000000  1.000000
 FoFCou: FMM=F IPFlag=           0 FMFlag=      100000 FMFlg1=           0
         NFxFlg=           0 DoJE=T BraDBF=F KetDBF=T FulRan=T
         wScrn=  0.000000 ICntrl=     500 IOpCl=  0 I1Cent=   200000004 NGrid=           0
         NMat0=    1 NMatS0=      1 NMatT0=    0 NMatD0=    1 NMtDS0=    0 NMtDT0=    0
 Petite list used in FoFCou.
 Keep R1 ints in memory in canonical form, NReq=50851534.
 Requested convergence on RMS density matrix=1.00D-08 within 128 cycles.
 Requested convergence on MAX density matrix=1.00D-06.
 Requested convergence on             energy=1.00D-06.
 No special actions if energy rises.
 Inv3:  Mode=1 IEnd=     4740147.
 Iteration    1 A*A^-1 deviation from unit magnitude is 4.44D-15 for   1250.
 Iteration    1 A*A^-1 deviation from orthogonality  is 5.53D-15 for   1251    566.
 Iteration    1 A^-1*A deviation from unit magnitude is 4.22D-15 for   1250.
 Iteration    1 A^-1*A deviation from orthogonality  is 2.85D-10 for    998    986.
 Iteration    2 A*A^-1 deviation from unit magnitude is 2.00D-15 for    316.
 Iteration    2 A*A^-1 deviation from orthogonality  is 2.00D-15 for   1251    566.
 Iteration    2 A^-1*A deviation from unit magnitude is 8.88D-16 for    169.
 Iteration    2 A^-1*A deviation from orthogonality  is 4.31D-16 for   1249    596.
 Error on total polarization charges =  0.04011
 SCF Done:  E(RHF) =  -419.264149929     A.U. after   13 cycles
            NFock= 13  Conv=0.32D-08     -V/T= 2.0016
 SMD-CDS (non-electrostatic) energy       (kcal/mol) =       4.85
 (included in total energy above)
 D1PCM: PCM CHGder 1st derivatives, ID1Alg=3 FixD1E=F DoIter=F DoCFld=F I1PDM=0.
 Calling FoFJK, ICntrl=      2127 FMM=F ISym2X=0 I1Cent= 0 IOpClX= 0 NMat=1 NMatS=1 NMatT=0.
 ***** Axes restored to original set *****
 -------------------------------------------------------------------
 Center     Atomic                   Forces (Hartrees/Bohr)
 Number     Number              X              Y              Z
 -------------------------------------------------------------------
      1        8          -0.003447144   -0.007360956    0.002967826
      2        6          -0.002179836    0.007430734   -0.002752186
      3        8           0.000071921    0.002482932    0.006428470
      4        6          -0.028770993   -0.010838404    0.002137118
      5        6           0.082872908   -0.013512161   -0.033260774
      6        8          -0.020148654    0.002978991    0.007907995
      7        6          -0.027959721   -0.011482028    0.023348777
      8        1           0.001168820    0.004726475    0.000907710
      9        1           0.000499897    0.001315122   -0.008417192
     10        1           0.005831854    0.002678113    0.002652875
     11        1           0.000681934    0.002294994    0.001214242
     12        6          -0.000574001    0.003111431    0.002458433
     13        1           0.001215224    0.002665086   -0.002392456
     14        1           0.002161628   -0.000374467   -0.002895498
     15        1          -0.001228910    0.000640986    0.000136683
     16        1          -0.007727262    0.014193020   -0.001191035
     17        1          -0.002467668   -0.000949869    0.000749013
 -------------------------------------------------------------------
 Cartesian Forces:  Max     0.082872908 RMS     0.015147010

 GradGradGradGradGradGradGradGradGradGradGradGradGradGradGradGradGradGrad
 Berny optimization.
 Using GEDIIS/GDIIS optimizer.
 FormGI is forming the generalized inverse of G from B-inverse, IUseBI=4.
 GSVD:  received Info=                   1 from GESDD.
 Internal  Forces:  Max     0.016373139 RMS     0.006024236
 Search for a local minimum.
 Step number   3 out of a maximum of   90
 All quantities printed in internal units (Hartrees-Bohrs-Radians)
 Mixed Optimization -- RFO/linear search
 Update second derivatives using D2CorX and points    2    3
 DE= -7.04D-02 DEPred=-7.98D-02 R= 8.82D-01
 TightC=F SS=  1.41D+00  RLast= 1.14D+00 DXNew= 8.4853D-01 3.4247D+00
 Trust test= 8.82D-01 RLast= 1.14D+00 DXMaxT set to 8.49D-01
 ITU=  1  1  0
 Use linear search instead of GDIIS.
     Eigenvalues ---    0.00230   0.00236   0.00394   0.00815   0.01158
     Eigenvalues ---    0.02509   0.03030   0.03240   0.03606   0.04958
     Eigenvalues ---    0.05471   0.05528   0.05561   0.06463   0.09256
     Eigenvalues ---    0.09632   0.10970   0.12913   0.14109   0.15999
     Eigenvalues ---    0.16000   0.16011   0.16105   0.20980   0.22974
     Eigenvalues ---    0.23277   0.24753   0.25138   0.27410   0.29582
     Eigenvalues ---    0.30828   0.33619   0.33746   0.33896   0.34208
     Eigenvalues ---    0.34246   0.34322   0.34364   0.34676   0.37226
     Eigenvalues ---    0.48054   0.57686   0.59808   0.73531   0.77476
 RFO step:  Lambda=-2.82813213D-02 EMin= 2.30071482D-03
 Quartic linear search produced a step of  0.29976.
 Iteration  1 RMS(Cart)=  0.09080697 RMS(Int)=  0.01146964
 Iteration  2 RMS(Cart)=  0.01724219 RMS(Int)=  0.00487417
 Iteration  3 RMS(Cart)=  0.00017877 RMS(Int)=  0.00487229
 Iteration  4 RMS(Cart)=  0.00000159 RMS(Int)=  0.00487229
[...]
 ! D1    D(1,2,4,5)            139.4041         -DE/DX =    0.0                 !
 ! D2    D(1,2,4,8)           -100.672          -DE/DX =    0.0                 !
 ! D3    D(1,2,4,9)             14.5422         -DE/DX =    0.0                 !
 ! D4    D(3,2,4,5)            -43.0165         -DE/DX =    0.0                 !
 ! D5    D(3,2,4,8)             76.9073         -DE/DX =    0.0                 !
 ! D6    D(3,2,4,9)           -167.8785         -DE/DX =    0.0                 !
 ! D7    D(2,4,5,6)             53.9971         -DE/DX =    0.0                 !
 ! D8    D(2,4,5,7)            -73.4734         -DE/DX =    0.0                 !
 ! D9    D(2,4,5,16)           168.9222         -DE/DX =    0.0                 !
 ! D10   D(8,4,5,6)            -64.8634         -DE/DX =    0.0                 !
 ! D11   D(8,4,5,7)            167.6661         -DE/DX =    0.0                 !
 ! D12   D(8,4,5,16)            50.0617         -DE/DX =    0.0                 !
 ! D13   D(9,4,5,6)            178.8648         -DE/DX =    0.0                 !
 ! D14   D(9,4,5,7)             51.3943         -DE/DX =    0.0                 !
 ! D15   D(9,4,5,16)           -66.21           -DE/DX =    0.0                 !
 ! D16   D(4,5,6,17)           -36.1033         -DE/DX =    0.0                 !
 ! D17   D(7,5,6,17)            93.3407         -DE/DX =    0.0                 !
 ! D18   D(16,5,6,17)         -151.5887         -DE/DX =    0.0                 !
 ! D19   D(4,5,7,10)           -61.179          -DE/DX =    0.0                 !
 ! D20   D(4,5,7,11)          -175.4545         -DE/DX =    0.0                 !
 ! D21   D(4,5,7,12)            62.4414         -DE/DX =    0.0                 !
 ! D22   D(6,5,7,10)           171.3777         -DE/DX =    0.0                 !
 ! D23   D(6,5,7,11)            57.1022         -DE/DX =    0.0                 !
 ! D24   D(6,5,7,12)           -65.0019         -DE/DX =    0.0                 !
 ! D25   D(16,5,7,10)           56.6363         -DE/DX =    0.0                 !
 ! D26   D(16,5,7,11)          -57.6392         -DE/DX =    0.0                 !
 ! D27   D(16,5,7,12)         -179.7432         -DE/DX =    0.0                 !
 ! D28   D(5,7,12,13)          173.9221         -DE/DX =    0.0                 !
 ! D29   D(5,7,12,14)           54.5809         -DE/DX =    0.0                 !
 ! D30   D(5,7,12,15)          -66.8969         -DE/DX =    0.0                 !
 ! D31   D(10,7,12,13)         -63.1685         -DE/DX =    0.0                 !
 ! D32   D(10,7,12,14)         177.4903         -DE/DX =    0.0                 !
 ! D33   D(10,7,12,15)          56.0125         -DE/DX =    0.0                 !
 ! D34   D(11,7,12,13)          52.8484         -DE/DX =    0.0                 !
 ! D35   D(11,7,12,14)         -66.4928         -DE/DX =    0.0                 !
 ! D36   D(11,7,12,15)         172.0294         -DE/DX =    0.0                 !
 --------------------------------------------------------------------------------
 GradGradGradGradGradGradGradGradGradGradGradGradGradGradGradGradGradGrad

                          Input orientation:                          
 ---------------------------------------------------------------------
 Center     Atomic      Atomic             Coordinates (Angstroms)
 Number     Number       Type             X           Y           Z
 ---------------------------------------------------------------------
      1          8           0      -21.641020  -11.489826  -24.599033
      2          6           0      -21.980112  -10.329579  -24.875401
      3          8           0      -23.084714   -9.819830  -24.580141
      4          6           0      -20.960177   -9.433454  -25.576823
      5          6           0      -21.492602   -8.526719  -26.695738
      6          8           0      -22.572977   -7.731007  -26.239580
      7          6           0      -21.847553   -9.250030  -27.998531
      8          1           0      -20.542631   -8.794863  -24.800994
      9          1           0      -20.150617  -10.041709  -25.961159
     10          1           0      -20.943122   -9.716797  -28.381152
     11          1           0      -22.128805   -8.485702  -28.718609
     12          6           0      -22.963039  -10.292204  -27.921740
     13          1           0      -23.198054  -10.657501  -28.917083
     14          1           0      -23.872012   -9.874022  -27.502310
     15          1           0      -22.677309  -11.150329  -27.322783
     16          1           0      -20.696580   -7.832211  -26.939572
     17          1           0      -23.070518   -8.274063  -25.628442
 ---------------------------------------------------------------------
                    Distance matrix (angstroms):
                    1          2          3          4          5
     1  O    0.000000
     2  C    1.239974   0.000000
     3  O    2.207599   1.251866   0.000000
     4  C    2.376612   1.528169   2.378302   0.000000
     5  C    3.632933   2.607987   2.946643   1.535453   0.000000
     6  O    4.205788   2.994169   2.716394   2.436944   1.417198
     7  C    4.076263   3.307104   3.679759   2.585681   1.531808
     8  H    2.917203   2.104101   2.749821   1.088142   2.136445
     9  H    2.484699   2.146810   3.250441   1.083086   2.153073
    10  H    4.234987   3.706905   4.364025   2.818658   2.135142
    11  H    5.121875   4.265236   4.452031   3.483496   2.120953
    12  C    3.771261   3.201207   3.377014   3.201179   2.604266
    13  H    4.665048   4.233924   4.418552   4.202823   3.518973
    14  H    4.002145   3.269170   3.026855   3.518578   2.850856
    15  H    2.933933   2.673835   3.075433   2.990749   2.946192
    16  H    4.443899   3.484983   3.901375   2.119091   1.084180
    17  H    3.666644   2.445650   1.867762   2.408400   1.921659
                    6          7          8          9         10
     6  O    0.000000
     7  C    2.434662   0.000000
     8  H    2.706219   3.483423   0.000000
     9  H    3.359269   2.767170   1.747650   0.000000
    10  H    3.344565   1.087320   3.718586   2.567099   0.000000
    11  H    2.629151   1.087112   4.237833   3.733352   1.742216
    12  C    3.088938   1.528507   4.223678   3.437491   2.149934
    13  H    4.015484   2.156054   5.240503   4.289937   2.501373
    14  H    2.806153   2.175785   4.421139   4.031383   3.061941
    15  H    3.588311   2.180887   4.057645   3.076887   2.486476
    16  H    2.005267   2.111005   2.350301   2.477347   2.385497
    17  H    0.957050   2.839978   2.710371   3.429445   3.766258
                   11         12         13         14         15
    11  H    0.000000
    12  C    2.143454   0.000000
    13  H    2.428868   1.085994   0.000000
    14  H    2.538816   1.084910   1.752039   0.000000
    15  H    3.057683   1.084790   1.748098   1.757415   0.000000
    16  H    2.375561   3.486123   4.260303   3.816941   3.883303
    17  H    3.237398   3.056740   4.063521   2.591070   3.361296
                   16         17
    16  H    0.000000
    17  H    2.747703   0.000000
 Stoichiometry    C5H9O3(1-)
 Framework group  C1[X(C5H9O3)]
 Deg. of freedom    45
 Full point group                 C1      NOp   1
 Largest Abelian subgroup         C1      NOp   1
 Largest concise Abelian subgroup C1      NOp   1
                         Standard orientation:                         
 ---------------------------------------------------------------------
 Center     Atomic      Atomic             Coordinates (Angstroms)
 Number     Number       Type             X           Y           Z
 ---------------------------------------------------------------------
      1          8           0        2.286461    0.851499    0.428024
      2          6           0        1.456201    0.031324    0.009077
      3          8           0        1.389996   -0.376297   -1.172714
      4          6           0        0.476173   -0.572400    1.014246
      5          6           0       -0.975909   -0.742689    0.545123
      6          8           0       -1.040348   -1.478131   -0.664597
      7          6           0       -1.779173    0.557935    0.447227
      8          1           0        0.866689   -1.559398    1.253794
      9          1           0        0.493342    0.009267    1.927725
     10          1           0       -1.823343    1.001322    1.439055
     11          1           0       -2.797946    0.282110    0.186778
     12          6           0       -1.277427    1.599654   -0.552475
     13          1           0       -1.980285    2.425431   -0.611347
     14          1           0       -1.177793    1.181585   -1.548628
     15          1           0       -0.317849    2.013489   -0.261407
     16          1           0       -1.474329   -1.353742    1.289191
     17          1           0       -0.276548   -1.219572   -1.180058
 ---------------------------------------------------------------------
 Rotational constants (GHZ):      2.8260780      1.6005668      1.4004588

 **********************************************************************

            Population analysis using the SCF density.

 **********************************************************************

 Orbital symmetries:
       Occupied  (A) (A) (A) (A) (A) (A) (A) (A) (A) (A) (A) (A)
                 (A) (A) (A) (A) (A) (A) (A) (A) (A) (A) (A) (A)
                 (A) (A) (A) (A) (A) (A) (A) (A)
       Virtual   (A) (A) (A) (A) (A) (A) (A) (A) (A) (A) (A) (A)
                 (A) (A) (A) (A) (A) (A) (A) (A) (A) (A) (A) (A)
                 (A) (A) (A) (A) (A) (A) (A) (A) (A) (A) (A) (A)
                 (A) (A) (A) (A) (A) (A) (A) (A) (A) (A) (A) (A)
                 (A) (A) (A) (A) (A) (A) (A) (A) (A) (A) (A) (A)
                 (A) (A) (A) (A) (A) (A) (A) (A) (A) (A) (A) (A)
                 (A) (A) (A) (A) (A) (A) (A) (A) (A) (A) (A) (A)
                 (A) (A) (A) (A) (A) (A) (A) (A) (A) (A) (A) (A)
                 (A) (A) (A) (A) (A) (A) (A) (A) (A) (A)
 The electronic state is 1-A.
 Alpha  occ. eigenvalues --  -20.54074 -20.49529 -20.49245 -11.32974 -11.26631
 Alpha  occ. eigenvalues --  -11.20529 -11.20506 -11.19988  -1.38170  -1.34875
 Alpha  occ. eigenvalues --   -1.26939  -1.05191  -0.98490  -0.88808  -0.78434
 Alpha  occ. eigenvalues --   -0.71639  -0.66743  -0.63654  -0.62455  -0.59829
 Alpha  occ. eigenvalues --   -0.59067  -0.57964  -0.56233  -0.53075  -0.51404
 Alpha  occ. eigenvalues --   -0.48686  -0.47720  -0.46006  -0.41612  -0.40714
 Alpha  occ. eigenvalues --   -0.40122  -0.38833
 Alpha virt. eigenvalues --    0.22691   0.25634   0.29000   0.30448   0.31863
 Alpha virt. eigenvalues --    0.32224   0.33721   0.35409   0.36678   0.38279
 Alpha virt. eigenvalues --    0.40547   0.42101   0.44702   0.47812   0.52024
 Alpha virt. eigenvalues --    0.55436   0.61777   0.70950   0.74760   0.77255
 Alpha virt. eigenvalues --    0.81171   0.82901   0.86323   0.88466   0.89792
 Alpha virt. eigenvalues --    0.92788   0.94811   0.96536   0.98651   1.03038
 Alpha virt. eigenvalues --    1.07042   1.08848   1.10480   1.11911   1.14418
 Alpha virt. eigenvalues --    1.16038   1.17209   1.17849   1.17956   1.22911
 Alpha virt. eigenvalues --    1.23922   1.25043   1.25763   1.27745   1.30825
 Alpha virt. eigenvalues --    1.33378   1.35270   1.37045   1.41584   1.44578
 Alpha virt. eigenvalues --    1.47139   1.50264   1.62954   1.65697   1.70204
 Alpha virt. eigenvalues --    1.71899   1.74635   1.85172   1.89924   1.92493
 Alpha virt. eigenvalues --    1.95453   1.98816   1.99869   2.07090   2.10503
 Alpha virt. eigenvalues --    2.13328   2.13839   2.15580   2.18293   2.19130
 Alpha virt. eigenvalues --    2.24099   2.26241   2.29489   2.30996   2.34740
 Alpha virt. eigenvalues --    2.39290   2.42973   2.47536   2.50645   2.56434
 Alpha virt. eigenvalues --    2.60189   2.64289   2.66421   2.72235   2.76641
 Alpha virt. eigenvalues --    2.78780   2.84539   2.89993   2.92265   2.97569
 Alpha virt. eigenvalues --    3.04677   3.06131   3.12130   3.24310   3.26049
 Alpha virt. eigenvalues --    3.32332   3.39705   3.54159   4.26978   4.35956
 Alpha virt. eigenvalues --    4.58088   4.65583   4.78500   4.82989   5.00486
 Alpha virt. eigenvalues --    5.01843
          Condensed to atoms (all electrons):
               1          2          3          4          5          6
     1  O    8.509943   0.508847  -0.093076  -0.107756   0.001495  -0.000018
     2  C    0.508847   3.996145   0.441884   0.366883  -0.025970  -0.001474
     3  O   -0.093076   0.441884   8.569353  -0.122912   0.007306  -0.021424
     4  C   -0.107756   0.366883  -0.122912   5.412299   0.315122  -0.042071
     5  C    0.001495  -0.025970   0.007306   0.315122   4.778468   0.193251
     6  O   -0.000018  -0.001474  -0.021424  -0.042071   0.193251   8.587035
     7  C    0.000510  -0.004600  -0.001156  -0.058116   0.354508  -0.058628
     8  H    0.001319  -0.030116   0.001960   0.380448  -0.034429   0.001268
     9  H    0.006629  -0.034903   0.003717   0.373981  -0.035014   0.002884
    10  H   -0.000012   0.000377  -0.000009  -0.001210  -0.037369   0.003310
    11  H    0.000001  -0.000115  -0.000005   0.005268  -0.042530   0.000788
    12  C   -0.002432  -0.001405   0.002259  -0.004246  -0.041315  -0.000030
    13  H    0.000002   0.000150   0.000065  -0.000231   0.004057  -0.000051
    14  H   -0.000063   0.000199   0.001228   0.000266  -0.004393   0.005380
    15  H    0.005051   0.000207  -0.002389   0.002417  -0.004774   0.000173
    16  H   -0.000081   0.003328  -0.000216  -0.047432   0.430474  -0.039826
    17  H    0.000533   0.000844   0.046834  -0.008611  -0.023343   0.238277
               7          8          9         10         11         12
     1  O    0.000510   0.001319   0.006629  -0.000012   0.000001  -0.002432
     2  C   -0.004600  -0.030116  -0.034903   0.000377  -0.000115  -0.001405
     3  O   -0.001156   0.001960   0.003717  -0.000009  -0.000005   0.002259
     4  C   -0.058116   0.380448   0.373981  -0.001210   0.005268  -0.004246
     5  C    0.354508  -0.034429  -0.035014  -0.037369  -0.042530  -0.041315
     6  O   -0.058628   0.001268   0.002884   0.003310   0.000788  -0.000030
     7  C    5.144378   0.004823   0.000188   0.385801   0.401937   0.316617
     8  H    0.004823   0.500578  -0.018804  -0.000177  -0.000093  -0.000142
     9  H    0.000188  -0.018804   0.516450   0.000515  -0.000066   0.000154
    10  H    0.385801  -0.000177   0.000515   0.551052  -0.027436  -0.037865
    11  H    0.401937  -0.000093  -0.000066  -0.027436   0.545041  -0.041684
    12  C    0.316617  -0.000142   0.000154  -0.037865  -0.041684   5.153856
    13  H   -0.035178   0.000002  -0.000021  -0.002607  -0.003914   0.395448
    14  H   -0.039639  -0.000026  -0.000039   0.004392  -0.001806   0.391018
    15  H   -0.034079   0.000062   0.000275  -0.003126   0.003984   0.386220
    16  H   -0.059945  -0.006899  -0.001550   0.000059  -0.004583   0.004637
    17  H    0.000155   0.000278   0.000047  -0.000129  -0.000135   0.000995
              13         14         15         16         17
     1  O    0.000002  -0.000063   0.005051  -0.000081   0.000533
     2  C    0.000150   0.000199   0.000207   0.003328   0.000844
     3  O    0.000065   0.001228  -0.002389  -0.000216   0.046834
     4  C   -0.000231   0.000266   0.002417  -0.047432  -0.008611
     5  C    0.004057  -0.004393  -0.004774   0.430474  -0.023343
     6  O   -0.000051   0.005380   0.000173  -0.039826   0.238277
     7  C   -0.035178  -0.039639  -0.034079  -0.059945   0.000155
     8  H    0.000002  -0.000026   0.000062  -0.006899   0.000278
     9  H   -0.000021  -0.000039   0.000275  -0.001550   0.000047
    10  H   -0.002607   0.004392  -0.003126   0.000059  -0.000129
    11  H   -0.003914  -0.001806   0.003984  -0.004583  -0.000135
    12  C    0.395448   0.391018   0.386220   0.004637   0.000995
    13  H    0.527524  -0.027542  -0.027962  -0.000082   0.000010
    14  H   -0.027542   0.532565  -0.028758   0.000067  -0.000031
    15  H   -0.027962  -0.028758   0.535418  -0.000116  -0.000099
    16  H   -0.000082   0.000067  -0.000116   0.544490   0.003722
    17  H    0.000010  -0.000031  -0.000099   0.003722   0.242165
 Mulliken charges:
               1
     1  O   -0.830891
     2  C    0.779718
     3  O   -0.833421
     4  C   -0.464100
     5  C    0.164457
     6  O   -0.868843
     7  C   -0.317576
     8  H    0.199947
     9  H    0.185556
    10  H    0.164435
    11  H    0.165349
    12  C   -0.522086
    13  H    0.170330
    14  H    0.167182
    15  H    0.167497
    16  H    0.173953
    17  H    0.498490
 Sum of Mulliken charges =  -1.00000
 Mulliken charges with hydrogens summed into heavy atoms:
               1
     1  O   -0.830891
     2  C    0.779718
     3  O   -0.833421
     4  C   -0.078597
     5  C    0.338410
     6  O   -0.370353
     7  C    0.012209
    12  C   -0.017077
 Electronic spatial extent (au):  <R**2>=            992.8554
 Charge=             -1.0000 electrons
 Dipole moment (field-independent basis, Debye):
    X=             -7.8467    Y=             -0.1726    Z=              3.8302  Tot=              8.7333
 Quadrupole moment (field-independent basis, Debye-Ang):
   XX=            -72.9777   YY=            -56.9698   ZZ=            -54.2151
   XY=             -9.8672   XZ=             -0.0802   YZ=             -4.6984
 Traceless Quadrupole moment (field-independent basis, Debye-Ang):
   XX=            -11.5902   YY=              4.4177   ZZ=              7.1724
   XY=             -9.8672   XZ=             -0.0802   YZ=             -4.6984
 Octapole moment (field-independent basis, Debye-Ang**2):
  XXX=            -41.6075  YYY=             -0.0145  ZZZ=              2.1610  XYY=              1.2228
  XXY=            -12.7789  XXZ=              2.9736  XZZ=             -7.5365  YZZ=             -1.9411
  YYZ=              2.7200  XYZ=             -2.0120
 Hexadecapole moment (field-independent basis, Debye-Ang**3):
 XXXX=           -788.1072 YYYY=           -368.9855 ZZZZ=           -232.8668 XXXY=            -37.7893
 XXXZ=             -9.7382 YYYX=            -13.1886 YYYZ=             -3.0829 ZZZX=              7.1799
 ZZZY=              6.6497 XXYY=           -192.7540 XXZZ=           -171.0407 YYZZ=            -97.8959
 XXYZ=            -15.9381 YYXZ=             -7.7967 ZZXY=              1.9853
 N-N= 3.979852863020D+02 E-N=-1.794929435327D+03  KE= 4.186863922839D+02
 1\1\NSC-N76\FOpt\RHF\6-31G(d)\C5H9O3(1-)\X_GABOA\13-Dec-2022\0\\#HF/6-
 31G* scrf=smd opt\\remark line goes here\\-1,1\O,-21.6410200411,-11.48
 98261913,-24.5990334583\C,-21.980112003,-10.3295794674,-24.8754009597\
 O,-23.0847137697,-9.819830388,-24.5801409999\C,-20.9601766104,-9.43345
 41792,-25.5768230285\C,-21.4926017067,-8.5267192979,-26.695738031\O,-2
 2.5729772691,-7.7310073263,-26.2395799576\C,-21.8475526765,-9.25002988
 86,-27.9985305143\H,-20.5426313928,-8.7948629562,-24.8009944755\H,-20.
 1506168822,-10.0417089261,-25.9611588243\H,-20.9431220856,-9.716796642
 2,-28.3811520256\H,-22.1288047868,-8.48570178,-28.7186089142\C,-22.963
 0388377,-10.2922038689,-27.9217400964\H,-23.1980539999,-10.6575014283,
 -28.9170830803\H,-23.8720124148,-9.8740222499,-27.502310186\H,-22.6773
 087913,-11.1503292111,-27.3227830083\H,-20.6965801858,-7.8322112003,-2
 6.9395721028\H,-23.0705175465,-8.2740629984,-25.6284423372\\Version=ES
 64L-G09RevE.01\State=1-A\HF=-419.3137168\RMSD=5.136e-09\RMSF=4.774e-06
 \Dipole=1.2891098,1.409411,-2.8561272\Quadrupole=6.4499715,-6.3917745,
 -0.0581969,2.9877854,1.7824034,8.3322786\PG=C01 [X(C5H9O3)]\\@


 WOE UNTO THEM THAT CALL EVIL GOOD, AND GOOD EVIL      
 Job cpu time:       0 days  0 hours 27 minutes 27.4 seconds.
 File lengths (MBytes):  RWF=     63 Int=      0 D2E=      0 Chk=      8 Scr=      1
 Normal termination of Gaussian 09 at Tue Dec 13 19:01:12 2022.
