 Entering Gaussian System, Link 0=/software/sse/easybuild/prefix/software/Gaussian/09.E.01-avx-nsc1-bdist/g09/g09.orig
 Input=h2-3ov_gesp.wrap
 Output=h2-3ov_gesp.log
 Initial command:
 /software/sse/easybuild/prefix/software/Gaussian/09.E.01-avx-nsc1-bdist/g09/l1.exe "/scratch/local/Gau-95757.inp" -scrdir="/scratch/local/"
 Entering Link 1 = /software/sse/easybuild/prefix/software/Gaussian/09.E.01-avx-nsc1-bdist/g09/l1.exe PID=     95758.
  
 Copyright (c) 1988,1990,1992,1993,1995,1998,2003,2009,2015,
            Gaussian, Inc.  All Rights Reserved.
  
 This is part of the Gaussian(R) 09 program.  It is based on
 the Gaussian(R) 03 system (copyright 2003, Gaussian, Inc.),
 the Gaussian(R) 98 system (copyright 1998, Gaussian, Inc.),
 the Gaussian(R) 94 system (copyright 1995, Gaussian, Inc.),
 the Gaussian 92(TM) system (copyright 1992, Gaussian, Inc.),
 the Gaussian 90(TM) system (copyright 1990, Gaussian, Inc.),
 the Gaussian 88(TM) system (copyright 1988, Gaussian, Inc.),
 the Gaussian 86(TM) system (copyright 1986, Carnegie Mellon
 University), and the Gaussian 82(TM) system (copyright 1983,
 Carnegie Mellon University). Gaussian is a federally registered
 trademark of Gaussian, Inc.
  
 This software contains proprietary and confidential information,
 including trade secrets, belonging to Gaussian, Inc.
  
 This software is provided under written license and may be
 used, copied, transmitted, or stored only in accord with that
 written license.
  
 The following legend is applicable only to US Government
 contracts under FAR:
  
                    RESTRICTED RIGHTS LEGEND
  
 Use, reproduction and disclosure by the US Government is
 subject to restrictions as set forth in subparagraphs (a)
 and (c) of the Commercial Computer Software - Restricted
 Rights clause in FAR 52.227-19.
  
 Gaussian, Inc.
 340 Quinnipiac St., Bldg. 40, Wallingford CT 06492
  
  
 ---------------------------------------------------------------
 Warning -- This program may not be used in any manner that
 competes with the business of Gaussian, Inc. or will provide
 assistance to any competitor of Gaussian, Inc.  The licensee
 of this program is prohibited from giving any competitor of
 Gaussian, Inc. access to this program.  By using this program,
 the user acknowledges that Gaussian, Inc. is engaged in the
 business of creating and licensing software in the field of
 computational chemistry and represents and warrants to the
 licensee that it is not a competitor of Gaussian, Inc. and that
 it will not use this program in any manner prohibited above.
 ---------------------------------------------------------------
  

 Cite this work as:
 Gaussian 09, Revision E.01,
 M. J. Frisch, G. W. Trucks, H. B. Schlegel, G. E. Scuseria, 
 M. A. Robb, J. R. Cheeseman, G. Scalmani, V. Barone, B. Mennucci, 
 G. A. Petersson, H. Nakatsuji, M. Caricato, X. Li, H. P. Hratchian, 
 A. F. Izmaylov, J. Bloino, G. Zheng, J. L. Sonnenberg, M. Hada, 
 M. Ehara, K. Toyota, R. Fukuda, J. Hasegawa, M. Ishida, T. Nakajima, 
 Y. Honda, O. Kitao, H. Nakai, T. Vreven, J. A. Montgomery, Jr., 
 J. E. Peralta, F. Ogliaro, M. Bearpark, J. J. Heyd, E. Brothers, 
 K. N. Kudin, V. N. Staroverov, T. Keith, R. Kobayashi, J. Normand, 
 K. Raghavachari, A. Rendell, J. C. Burant, S. S. Iyengar, J. Tomasi, 
 M. Cossi, N. Rega, J. M. Millam, M. Klene, J. E. Knox, J. B. Cross, 
 V. Bakken, C. Adamo, J. Jaramillo, R. Gomperts, R. E. Stratmann, 
 O. Yazyev, A. J. Austin, R. Cammi, C. Pomelli, J. W. Ochterski, 
 R. L. Martin, K. Morokuma, V. G. Zakrzewski, G. A. Voth, 
 P. Salvador, J. J. Dannenberg, S. Dapprich, A. D. Daniels, 
 O. Farkas, J. B. Foresman, J. V. Ortiz, J. Cioslowski, 
 and D. J. Fox, Gaussian, Inc., Wallingford CT, 2013.
 
 ******************************************
 Gaussian 09:  ES64L-G09RevE.01 30-Nov-2015
                13-Dec-2022 
 ******************************************
 %chk=3ov-h2_resp
 ----------------------------------------------------------------------
 #HF/6-31G* scrf=smd SCF=tight Test Pop=MK iop(6/33=2) iop(6/42=6) # io
 p(6/50=1)
 ----------------------------------------------------------------------
 1/38=1/1;
 2/12=2,17=6,18=5,40=1/2;
 3/5=1,6=6,7=1,11=9,16=1,25=1,30=1,70=32201,72=1/1,2,3;
 4//1;
 5/5=2,32=2,38=5/2;
 6/7=2,8=2,9=2,10=2,15=8,20=1,28=1,33=2,42=6,50=1/1,2;
 99/5=1,9=1/99;
 -----------------
 calc RESP charges
 -----------------
 Symbolic Z-matrix:
 Charge = -1 Multiplicity = 1
 O                     2.28646   0.8515    0.42802 
 C                     1.4562    0.03132   0.00908 
 O                     1.39     -0.3763   -1.17271 
 C                     0.47617  -0.5724    1.01425 
 C                    -0.97591  -0.74269   0.54512 
 O                    -1.04035  -1.47813  -0.6646 
 C                    -1.77917   0.55794   0.44723 
 H                     0.86669  -1.5594    1.25379 
 H                     0.49334   0.00927   1.92773 
 H                    -1.82334   1.00132   1.43906 
 H                    -2.79795   0.28211   0.18678 
 C                    -1.27743   1.59965  -0.55248 
 H                    -1.98029   2.42543  -0.61135 
 H                    -1.17779   1.18159  -1.54863 
 H                    -0.31785   2.01349  -0.26141 
 H                    -1.47433  -1.35374   1.28919 
 H                    -0.27655  -1.21957  -1.18006 
 
                          Input orientation:                          
 ---------------------------------------------------------------------
 Center     Atomic      Atomic             Coordinates (Angstroms)
 Number     Number       Type             X           Y           Z
 ---------------------------------------------------------------------
      1          8           0        2.286461    0.851499    0.428024
      2          6           0        1.456201    0.031324    0.009077
      3          8           0        1.389996   -0.376297   -1.172714
      4          6           0        0.476173   -0.572400    1.014246
      5          6           0       -0.975909   -0.742689    0.545123
      6          8           0       -1.040348   -1.478131   -0.664597
      7          6           0       -1.779173    0.557935    0.447227
      8          1           0        0.866689   -1.559398    1.253794
      9          1           0        0.493342    0.009267    1.927725
     10          1           0       -1.823343    1.001322    1.439055
     11          1           0       -2.797946    0.282110    0.186778
     12          6           0       -1.277427    1.599654   -0.552475
     13          1           0       -1.980285    2.425431   -0.611347
     14          1           0       -1.177793    1.181585   -1.548628
     15          1           0       -0.317849    2.013489   -0.261407
     16          1           0       -1.474329   -1.353742    1.289191
     17          1           0       -0.276548   -1.219572   -1.180058
 ---------------------------------------------------------------------
                    Distance matrix (angstroms):
                    1          2          3          4          5
     1  O    0.000000
     2  C    1.239974   0.000000
     3  O    2.207599   1.251866   0.000000
     4  C    2.376613   1.528170   2.378303   0.000000
     5  C    3.632933   2.607988   2.946644   1.535453   0.000000
     6  O    4.205788   2.994169   2.716393   2.436944   1.417198
     7  C    4.076264   3.307104   3.679760   2.585682   1.531809
     8  H    2.917203   2.104101   2.749822   1.088141   2.136445
     9  H    2.484700   2.146810   3.250442   1.083086   2.153073
    10  H    4.234988   3.706905   4.364026   2.818659   2.135142
    11  H    5.121874   4.265236   4.452031   3.483496   2.120953
    12  C    3.771261   3.201206   3.377014   3.201179   2.604267
    13  H    4.665048   4.233924   4.418553   4.202824   3.518974
    14  H    4.002145   3.269170   3.026854   3.518578   2.850856
    15  H    2.933934   2.673835   3.075434   2.990750   2.946193
    16  H    4.443899   3.484983   3.901376   2.119091   1.084180
    17  H    3.666644   2.445650   1.867762   2.408400   1.921659
                    6          7          8          9         10
     6  O    0.000000
     7  C    2.434662   0.000000
     8  H    2.706218   3.483423   0.000000
     9  H    3.359269   2.767171   1.747650   0.000000
    10  H    3.344566   1.087320   3.718586   2.567100   0.000000
    11  H    2.629152   1.087112   4.237833   3.733352   1.742215
    12  C    3.088938   1.528506   4.223677   3.437491   2.149934
    13  H    4.015484   2.156053   5.240503   4.289938   2.501373
    14  H    2.806152   2.175784   4.421138   4.031383   3.061940
    15  H    3.588311   2.180887   4.057645   3.076887   2.486476
    16  H    2.005268   2.111005   2.350301   2.477347   2.385497
    17  H    0.957049   2.839977   2.710370   3.429445   3.766258
                   11         12         13         14         15
    11  H    0.000000
    12  C    2.143454   0.000000
    13  H    2.428868   1.085994   0.000000
    14  H    2.538816   1.084910   1.752039   0.000000
    15  H    3.057683   1.084790   1.748098   1.757415   0.000000
    16  H    2.375561   3.486123   4.260303   3.816940   3.883303
    17  H    3.237397   3.056739   4.063520   2.591070   3.361296
                   16         17
    16  H    0.000000
    17  H    2.747703   0.000000
 Stoichiometry    C5H9O3(1-)
 Framework group  C1[X(C5H9O3)]
 Deg. of freedom    45
 Full point group                 C1      NOp   1
 Largest Abelian subgroup         C1      NOp   1
 Largest concise Abelian subgroup C1      NOp   1
                         Standard orientation:                         
 ---------------------------------------------------------------------
 Center     Atomic      Atomic             Coordinates (Angstroms)
 Number     Number       Type             X           Y           Z
 ---------------------------------------------------------------------
      1          8           0        2.286461    0.851499    0.428024
      2          6           0        1.456201    0.031324    0.009077
      3          8           0        1.389996   -0.376297   -1.172714
      4          6           0        0.476173   -0.572400    1.014246
      5          6           0       -0.975909   -0.742689    0.545123
      6          8           0       -1.040348   -1.478131   -0.664597
      7          6           0       -1.779173    0.557935    0.447227
      8          1           0        0.866689   -1.559398    1.253794
      9          1           0        0.493342    0.009267    1.927725
     10          1           0       -1.823343    1.001322    1.439055
     11          1           0       -2.797946    0.282110    0.186778
     12          6           0       -1.277427    1.599654   -0.552475
     13          1           0       -1.980285    2.425431   -0.611347
     14          1           0       -1.177793    1.181585   -1.548628
     15          1           0       -0.317849    2.013489   -0.261407
     16          1           0       -1.474329   -1.353742    1.289191
     17          1           0       -0.276548   -1.219572   -1.180058
 ---------------------------------------------------------------------
 Rotational constants (GHZ):      2.8260774      1.6005665      1.4004587
 Standard basis: 6-31G(d) (6D, 7F)
 There are   138 symmetry adapted cartesian basis functions of A   symmetry.
 There are   138 symmetry adapted basis functions of A   symmetry.
   138 basis functions,   260 primitive gaussians,   138 cartesian basis functions
    32 alpha electrons       32 beta electrons
       nuclear repulsion energy       397.9785409889 Hartrees.
 NAtoms=   17 NActive=   17 NUniq=   17 SFac= 1.00D+00 NAtFMM=   60 NAOKFM=F Big=F
 Integral buffers will be    131072 words long.
 Raffenetti 1 integral format.
 Two-electron integral symmetry is turned on.
 ------------------------------------------------------------------------------
 Polarizable Continuum Model (PCM)
 =================================
 Model                : PCM (using non-symmetric T matrix).
 Atomic radii         : SMD-Coulomb.
 Polarization charges : Total charges.
 Charge compensation  : None.
 Solution method      : On-the-fly selection.
 Cavity type          : VdW (van der Waals Surface) (Alpha=1.000).
 Cavity algorithm     : GePol (No added spheres)
                        Default sphere list used, NSphG=   17.
                        Lebedev-Laikov grids with approx.  5.0 points / Ang**2.
                        Smoothing algorithm: York/Karplus (Gamma=1.0000).
                        Polarization charges: spherical gaussians, with
                                              point-specific exponents (IZeta= 3).
                        Self-potential: point-specific (ISelfS= 7).
                        Self-field    : sphere-specific E.n sum rule (ISelfD= 2).
 Solvent              : Water, Eps=  78.355300 Eps(inf)=   1.777849
 ------------------------------------------------------------------------------
 Spheres list:
 ISph  on   Nord     Re0    Alpha      Xe            Ye            Ze
    1   O      1    1.5200  1.000      2.286461      0.851499      0.428024
    2   C      2    1.8500  1.000      1.456201      0.031324      0.009077
    3   O      3    1.5200  1.000      1.389996     -0.376297     -1.172714
    4   C      4    1.8500  1.000      0.476173     -0.572400      1.014246
    5   C      5    1.8500  1.000     -0.975909     -0.742689      0.545123
    6   O      6    1.5200  1.000     -1.040348     -1.478131     -0.664597
    7   C      7    1.8500  1.000     -1.779173      0.557935      0.447227
    8   H      8    1.2000  1.000      0.866689     -1.559398      1.253794
    9   H      9    1.2000  1.000      0.493342      0.009267      1.927725
   10   H     10    1.2000  1.000     -1.823343      1.001322      1.439055
   11   H     11    1.2000  1.000     -2.797946      0.282110      0.186778
   12   C     12    1.8500  1.000     -1.277427      1.599654     -0.552475
   13   H     13    1.2000  1.000     -1.980285      2.425431     -0.611347
   14   H     14    1.2000  1.000     -1.177793      1.181585     -1.548628
   15   H     15    1.2000  1.000     -0.317849      2.013489     -0.261407
   16   H     16    1.2000  1.000     -1.474329     -1.353742      1.289191
   17   H     17    1.2000  1.000     -0.276548     -1.219572     -1.180058
 ------------------------------------------------------------------------------
 ------------------------------------------------------------------------------
 Atomic radii for non-electrostatic terms: SMD-CDS.
 ------------------------------------------------------------------------------
 Nuclear repulsion after PCM non-electrostatic terms =      397.9852588064 Hartrees.
 One-electron integrals computed using PRISM.
 NBasis=   138 RedAO= T EigKep=  2.96D-03  NBF=   138
 NBsUse=   138 1.00D-06 EigRej= -1.00D+00 NBFU=   138
 ExpMin= 1.61D-01 ExpMax= 5.48D+03 ExpMxC= 8.25D+02 IAcc=1 IRadAn=         1 AccDes= 0.00D+00
 Harris functional with IExCor=  205 and IRadAn=       1 diagonalized for initial guess.
 HarFok:  IExCor=  205 AccDes= 0.00D+00 IRadAn=         1 IDoV= 1 UseB2=F ITyADJ=14
 ICtDFT=  3500011 ScaDFX=  1.000000  1.000000  1.000000  1.000000
 FoFCou: FMM=F IPFlag=           0 FMFlag=      100000 FMFlg1=           0
         NFxFlg=           0 DoJE=T BraDBF=F KetDBF=T FulRan=T
         wScrn=  0.000000 ICntrl=     500 IOpCl=  0 I1Cent=   200000004 NGrid=           0
         NMat0=    1 NMatS0=      1 NMatT0=    0 NMatD0=    1 NMtDS0=    0 NMtDT0=    0
 Petite list used in FoFCou.
 Keep R1 ints in memory in canonical form, NReq=50662204.
 Requested convergence on RMS density matrix=1.00D-08 within 128 cycles.
 Requested convergence on MAX density matrix=1.00D-06.
 Requested convergence on             energy=1.00D-06.
 No special actions if energy rises.
 Inv3:  Mode=1 IEnd=     4198467.
 Iteration    1 A*A^-1 deviation from unit magnitude is 3.33D-15 for   1179.
 Iteration    1 A*A^-1 deviation from orthogonality  is 3.94D-15 for    680    397.
 Iteration    1 A^-1*A deviation from unit magnitude is 3.55D-15 for   1179.
 Iteration    1 A^-1*A deviation from orthogonality  is 3.39D-11 for   1073   1068.
 Error on total polarization charges =  0.04031
 SCF Done:  E(RHF) =  -419.313716794     A.U. after   13 cycles
            NFock= 13  Conv=0.96D-08     -V/T= 2.0015
 SMD-CDS (non-electrostatic) energy       (kcal/mol) =       4.22
 (included in total energy above)

 **********************************************************************

            Population analysis using the SCF density.

 **********************************************************************

 Orbital symmetries:
 BldTbl:  Degeneracy threshold= 1.00D-02
       Occupied  (A) (A) (A) (A) (A) (A) (A) (A) (A) (A) (A) (A)
                 (A) (A) (A) (A) (A) (A) (A) (A) (A) (A) (A) (A)
                 (A) (A) (A) (A) (A) (A) (A) (A)
       Virtual   (A) (A) (A) (A) (A) (A) (A) (A) (A) (A) (A) (A)
                 (A) (A) (A) (A) (A) (A) (A) (A) (A) (A) (A) (A)
                 (A) (A) (A) (A) (A) (A) (A) (A) (A) (A) (A) (A)
                 (A) (A) (A) (A) (A) (A) (A) (A) (A) (A) (A) (A)
                 (A) (A) (A) (A) (A) (A) (A) (A) (A) (A) (A) (A)
                 (A) (A) (A) (A) (A) (A) (A) (A) (A) (A) (A) (A)
                 (A) (A) (A) (A) (A) (A) (A) (A) (A) (A) (A) (A)
                 (A) (A) (A) (A) (A) (A) (A) (A) (A) (A) (A) (A)
                 (A) (A) (A) (A) (A) (A) (A) (A) (A) (A)
 The electronic state is 1-A.
 Alpha  occ. eigenvalues --  -20.54074 -20.49529 -20.49245 -11.32974 -11.26631
 Alpha  occ. eigenvalues --  -11.20529 -11.20506 -11.19988  -1.38170  -1.34875
 Alpha  occ. eigenvalues --   -1.26939  -1.05191  -0.98490  -0.88808  -0.78434
 Alpha  occ. eigenvalues --   -0.71639  -0.66743  -0.63654  -0.62455  -0.59829
 Alpha  occ. eigenvalues --   -0.59067  -0.57964  -0.56233  -0.53075  -0.51404
 Alpha  occ. eigenvalues --   -0.48686  -0.47720  -0.46006  -0.41612  -0.40714
 Alpha  occ. eigenvalues --   -0.40122  -0.38833
 Alpha virt. eigenvalues --    0.22691   0.25634   0.29000   0.30448   0.31863
 Alpha virt. eigenvalues --    0.32224   0.33721   0.35409   0.36678   0.38279
 Alpha virt. eigenvalues --    0.40547   0.42101   0.44702   0.47812   0.52024
 Alpha virt. eigenvalues --    0.55436   0.61777   0.70950   0.74760   0.77255
 Alpha virt. eigenvalues --    0.81171   0.82901   0.86323   0.88466   0.89792
 Alpha virt. eigenvalues --    0.92788   0.94811   0.96536   0.98651   1.03037
 Alpha virt. eigenvalues --    1.07042   1.08848   1.10480   1.11911   1.14418
 Alpha virt. eigenvalues --    1.16038   1.17209   1.17849   1.17956   1.22911
 Alpha virt. eigenvalues --    1.23922   1.25043   1.25763   1.27745   1.30825
 Alpha virt. eigenvalues --    1.33378   1.35270   1.37045   1.41584   1.44578
 Alpha virt. eigenvalues --    1.47139   1.50264   1.62954   1.65697   1.70204
 Alpha virt. eigenvalues --    1.71899   1.74635   1.85172   1.89924   1.92493
 Alpha virt. eigenvalues --    1.95453   1.98816   1.99869   2.07090   2.10503
 Alpha virt. eigenvalues --    2.13328   2.13839   2.15580   2.18293   2.19130
 Alpha virt. eigenvalues --    2.24099   2.26240   2.29489   2.30996   2.34740
 Alpha virt. eigenvalues --    2.39290   2.42973   2.47536   2.50645   2.56434
 Alpha virt. eigenvalues --    2.60189   2.64289   2.66421   2.72235   2.76641
 Alpha virt. eigenvalues --    2.78780   2.84539   2.89993   2.92265   2.97569
 Alpha virt. eigenvalues --    3.04677   3.06131   3.12130   3.24310   3.26049
 Alpha virt. eigenvalues --    3.32332   3.39705   3.54158   4.26978   4.35956
 Alpha virt. eigenvalues --    4.58088   4.65583   4.78499   4.82989   5.00486
 Alpha virt. eigenvalues --    5.01843
          Condensed to atoms (all electrons):
               1          2          3          4          5          6
     1  O    8.509943   0.508847  -0.093076  -0.107756   0.001495  -0.000018
     2  C    0.508847   3.996145   0.441884   0.366883  -0.025970  -0.001474
     3  O   -0.093076   0.441884   8.569353  -0.122911   0.007306  -0.021424
     4  C   -0.107756   0.366883  -0.122911   5.412299   0.315122  -0.042071
     5  C    0.001495  -0.025970   0.007306   0.315122   4.778468   0.193251
     6  O   -0.000018  -0.001474  -0.021424  -0.042071   0.193251   8.587034
     7  C    0.000510  -0.004600  -0.001156  -0.058116   0.354508  -0.058628
     8  H    0.001319  -0.030116   0.001960   0.380448  -0.034429   0.001268
     9  H    0.006629  -0.034903   0.003717   0.373981  -0.035014   0.002884
    10  H   -0.000012   0.000377  -0.000009  -0.001210  -0.037370   0.003310
    11  H    0.000001  -0.000115  -0.000005   0.005268  -0.042530   0.000788
    12  C   -0.002432  -0.001405   0.002259  -0.004246  -0.041315  -0.000030
    13  H    0.000002   0.000150   0.000065  -0.000231   0.004057  -0.000051
    14  H   -0.000063   0.000199   0.001228   0.000266  -0.004393   0.005380
    15  H    0.005051   0.000207  -0.002389   0.002417  -0.004774   0.000173
    16  H   -0.000081   0.003328  -0.000216  -0.047432   0.430474  -0.039826
    17  H    0.000533   0.000844   0.046834  -0.008611  -0.023343   0.238277
               7          8          9         10         11         12
     1  O    0.000510   0.001319   0.006629  -0.000012   0.000001  -0.002432
     2  C   -0.004600  -0.030116  -0.034903   0.000377  -0.000115  -0.001405
     3  O   -0.001156   0.001960   0.003717  -0.000009  -0.000005   0.002259
     4  C   -0.058116   0.380448   0.373981  -0.001210   0.005268  -0.004246
     5  C    0.354508  -0.034429  -0.035014  -0.037370  -0.042530  -0.041315
     6  O   -0.058628   0.001268   0.002884   0.003310   0.000788  -0.000030
     7  C    5.144378   0.004823   0.000188   0.385801   0.401937   0.316617
     8  H    0.004823   0.500577  -0.018804  -0.000177  -0.000093  -0.000142
     9  H    0.000188  -0.018804   0.516450   0.000515  -0.000066   0.000154
    10  H    0.385801  -0.000177   0.000515   0.551052  -0.027436  -0.037865
    11  H    0.401937  -0.000093  -0.000066  -0.027436   0.545040  -0.041684
    12  C    0.316617  -0.000142   0.000154  -0.037865  -0.041684   5.153856
    13  H   -0.035178   0.000002  -0.000021  -0.002607  -0.003914   0.395448
    14  H   -0.039639  -0.000026  -0.000039   0.004392  -0.001806   0.391018
    15  H   -0.034079   0.000062   0.000275  -0.003126   0.003984   0.386221
    16  H   -0.059945  -0.006899  -0.001550   0.000059  -0.004583   0.004637
    17  H    0.000155   0.000278   0.000047  -0.000129  -0.000135   0.000995
              13         14         15         16         17
     1  O    0.000002  -0.000063   0.005051  -0.000081   0.000533
     2  C    0.000150   0.000199   0.000207   0.003328   0.000844
     3  O    0.000065   0.001228  -0.002389  -0.000216   0.046834
     4  C   -0.000231   0.000266   0.002417  -0.047432  -0.008611
     5  C    0.004057  -0.004393  -0.004774   0.430474  -0.023343
     6  O   -0.000051   0.005380   0.000173  -0.039826   0.238277
     7  C   -0.035178  -0.039639  -0.034079  -0.059945   0.000155
     8  H    0.000002  -0.000026   0.000062  -0.006899   0.000278
     9  H   -0.000021  -0.000039   0.000275  -0.001550   0.000047
    10  H   -0.002607   0.004392  -0.003126   0.000059  -0.000129
    11  H   -0.003914  -0.001806   0.003984  -0.004583  -0.000135
    12  C    0.395448   0.391018   0.386221   0.004637   0.000995
    13  H    0.527524  -0.027542  -0.027962  -0.000082   0.000010
    14  H   -0.027542   0.532565  -0.028758   0.000067  -0.000031
    15  H   -0.027962  -0.028758   0.535417  -0.000116  -0.000099
    16  H   -0.000082   0.000067  -0.000116   0.544489   0.003722
    17  H    0.000010  -0.000031  -0.000099   0.003722   0.242165
 Mulliken charges:
               1
     1  O   -0.830891
     2  C    0.779718
     3  O   -0.833421
     4  C   -0.464100
     5  C    0.164457
     6  O   -0.868842
     7  C   -0.317576
     8  H    0.199947
     9  H    0.185556
    10  H    0.164435
    11  H    0.165350
    12  C   -0.522086
    13  H    0.170329
    14  H    0.167182
    15  H    0.167497
    16  H    0.173953
    17  H    0.498490
 Sum of Mulliken charges =  -1.00000
 Mulliken charges with hydrogens summed into heavy atoms:
               1
     1  O   -0.830891
     2  C    0.779718
     3  O   -0.833421
     4  C   -0.078597
     5  C    0.338410
     6  O   -0.370353
     7  C    0.012209
    12  C   -0.017076
 DipInt: DoE/N= T F RetVal/Mat= T F Init=T NMatP=  1 IDeriv=0 Min/MaxMlt=  0  4
 Entering OneElI...
 OneElI was handed   134166496 working-precision words.
 Multipole integrals L=0 to 4 MinM= 0 MaxM= 0.
 Requested accuracy = 0.1000D-12
 ShPair: Thresh= 1.00D-13 NBox=     0 BxSize= 0.00D+00 RnKept= 9.90D+00
         NSMCal=                 1275 NSMKep=                1239
 PrsmSu:  NPrtUS=   1 ThrOK=F IAlg=1 NPAlg=1 LenDen=           0.
 Prism:   IPart=     0 DynPar=F LinDyn=F Incr=          12.
 PRISM was handed   134053115 working-precision words and  1239 shell-pairs
 IPart=  0 NShTot=        1239 NBatch=          40 AvBLen=        31.0
 PrSmSu:  NxtVal=             13.
 Electronic moments (au):
        -64.00000000         -3.08711680         -0.06790600          1.50692645
       -533.94986187       -274.76607791       -184.13951600         -7.33601940
         -0.05962091         -3.49310413       -298.37364688       -119.57386658
         -2.32158922        313.53892513       -364.26947869        -46.52309170
        -41.58563047         63.25082397        111.89808416        -78.37817227
      -7980.46457145      -2897.39183947      -1329.92681422       -386.21545656
        -60.50998476        316.93532586        164.91654673        143.63391132
         51.57707524      -2058.67490877      -1224.25111028       -709.43323887
       -236.22138634       -421.52436465        134.02813528
 Electronic spatial extent (au):  <R**2>=            992.8555
 DipInt: DoE/N= F T RetVal/Mat= T F Init=T NMatP=  1 IDeriv=0 Min/MaxMlt=  0  4
 Nuclear    moments (au):
         63.00000000         -0.00000000          0.00000000         -0.00000000
        479.69275028        232.41041911        143.83193333         -0.00000000
         -0.00003708         -0.00002788        239.91654653        119.55342278
          5.35773608       -311.82089949        346.31548635         50.70092346
         30.99716132        -65.97807809       -108.07658789         75.55146527
       5888.04048532       1917.73549556        711.66544493        285.88496156
         34.65517150       -351.95099917       -173.10153683       -124.57116496
        -33.92222976       1546.91319648        770.13820517        449.51950944
        193.90583361        400.82399495       -128.75724365
 Total      moments (au):
         -1.00000000         -3.08711680         -0.06790600          1.50692645
        -54.25711159        -42.35565880        -40.30758267         -7.33601940
         -0.05965799         -3.49313201        -58.45710035         -0.02044380
          3.03614685          1.71802563        -17.95399234          4.17783177
        -10.58846915         -2.72725411          3.82149627         -2.82670699
      -2092.42408614       -979.65634392       -618.26136929       -100.33049500
        -25.85481326        -35.01567332         -8.18499010         19.06274636
         17.65484547       -511.76171229       -454.11290511       -259.91372943
        -42.31555272        -20.70036970          5.27089163
 Traceless Quadrup. (au):
         -8.61699390          3.28445889          5.33253502         -7.33601940
         -0.05965799         -3.49313201
 Charge=             -1.0000 electrons
 Dipole moment (field-independent basis, Debye):
    X=             -7.8467    Y=             -0.1726    Z=              3.8302  Tot=              8.7333
 Quadrupole moment (field-independent basis, Debye-Ang):
   XX=            -72.9777   YY=            -56.9698   ZZ=            -54.2151
   XY=             -9.8672   XZ=             -0.0802   YZ=             -4.6984
 Traceless Quadrupole moment (field-independent basis, Debye-Ang):
   XX=            -11.5902   YY=              4.4177   ZZ=              7.1724
   XY=             -9.8672   XZ=             -0.0802   YZ=             -4.6984
 Octapole moment (field-independent basis, Debye-Ang**2):
  XXX=            -41.6075  YYY=             -0.0146  ZZZ=              2.1610  XYY=              1.2228
  XXY=            -12.7790  XXZ=              2.9736  XZZ=             -7.5365  YZZ=             -1.9412
  YYZ=              2.7200  XYZ=             -2.0119
 Hexadecapole moment (field-independent basis, Debye-Ang**3):
 XXXX=           -788.1072 YYYY=           -368.9855 ZZZZ=           -232.8669 XXXY=            -37.7893
 XXXZ=             -9.7382 YYYX=            -13.1886 YYYZ=             -3.0829 ZZZX=              7.1799
 ZZZY=              6.6497 XXYY=           -192.7540 XXZZ=           -171.0407 YYZZ=            -97.8960
 XXYZ=            -15.9381 YYXZ=             -7.7968 ZZXY=              1.9853
 N-N= 3.979852588064D+02 E-N=-1.794929380495D+03  KE= 4.186863927524D+02
 Entering OneElI...
 OneElI was handed   134175524 working-precision words.
 Calculate electrostatic properties
    NBasis =   138  MinDer = 0  MaxDer = 0
    NGrid  =    17  NMatD  =   1
 Requested accuracy = 0.1000D-12
 ShPair: Thresh= 1.00D-13 NBox=     0 BxSize= 0.00D+00 RnKept= 9.90D+00
         NSMCal=                 1275 NSMKep=                1212
 PrsmSu:  NPrtUS=   1 ThrOK=F IAlg=1 NPAlg=1 LenDen=           0.
 Prism:   IPart=     0 DynPar=F LinDyn=F Incr=         206.
 PRISM was handed   134068181 working-precision words and  1212 shell-pairs
 IPart=  0 NShTot=       20604 NBatch=        1212 AvBLen=        17.0
 PrSmSu:  NxtVal=            207.
 --------------------------------------------------------
       Center         ----      EFG at Nuclei      ----
                      3XX-RR        3YY-RR        3ZZ-RR
 --------------------------------------------------------
     1   Atom       -0.384092     -0.672209      1.056301
     2   Atom       -0.044020     -0.210839      0.254859
     3   Atom        0.649939      0.245946     -0.895885
     4   Atom       -0.017817      0.027901     -0.010084
     5   Atom        0.146016      0.069381     -0.215397
     6   Atom        0.285223      0.738555     -1.023778
     7   Atom        0.002393     -0.002214     -0.000179
     8   Atom        0.088884     -0.223952      0.135069
     9   Atom        0.152967      0.023045     -0.176012
    10   Atom        0.157857      0.072160     -0.230017
    11   Atom       -0.250386      0.120285      0.130101
    12   Atom        0.011939     -0.010561     -0.001378
    13   Atom       -0.039969     -0.115070      0.155039
    14   Atom        0.159818      0.085190     -0.245008
    15   Atom       -0.207749      0.086198      0.121551
    16   Atom        0.057825      0.007178     -0.065003
    17   Atom       -0.168469      0.178820     -0.010351
 --------------------------------------------------------
                        XY            XZ            YZ
 --------------------------------------------------------
     1   Atom       -0.260695     -0.820549     -0.245235
     2   Atom        0.450143     -0.145851      0.137458
     3   Atom        0.656190     -0.354397     -0.517516
     4   Atom        0.021408      0.003828      0.013889
     5   Atom       -0.001397     -0.035588     -0.239138
     6   Atom       -0.521173      0.850413     -0.896836
     7   Atom        0.002381      0.013068      0.026139
     8   Atom        0.150154     -0.032537      0.094008
     9   Atom       -0.002071     -0.006598     -0.215176
    10   Atom        0.009879      0.015200     -0.167818
    11   Atom       -0.110789     -0.106634     -0.021548
    12   Atom       -0.006214      0.004250      0.022799
    13   Atom        0.230627     -0.013709      0.022513
    14   Atom        0.014555      0.040679     -0.165445
    15   Atom       -0.159662     -0.113143     -0.042294
    16   Atom       -0.118023      0.142222      0.172893
    17   Atom       -0.142975      0.287987      0.067204
 --------------------------------------------------------


 ---------------------------------------------------------------------------------
              Nuclear Quadrupole Coupling Constant in Principal Axis System
 ---------------------------------------------------------------------------------

       Atom             a.u.   MegaHertz   Gauss  10(-4) cm-1        Axes


 ---------------------------------------------------------------------------------

 No NMR shielding tensors so no spin-rotation constants.
 Leave Link  601 at Tue Dec 13 19:22:23 2022, MaxMem=   134217728 cpu:         0.1
 FitSet:  NAtFit=    17 NAtPot=    17 NAtFrz=     0 MDM=    21 TotChg=  -1.00000
 Merz-Kollman atomic radii used.
 Atom Element Radius
    1     8    1.40
    2     6    1.50
    3     8    1.40
    4     6    1.50
    5     6    1.50
    6     8    1.40
    7     6    1.50
    8     1    1.20
    9     1    1.20
   10     1    1.20
   11     1    1.20
   12     6    1.50
   13     1    1.20
   14     1    1.20
   15     1    1.20
   16     1    1.20
   17     1    1.20
 Generate VDW surfaces: Layer= 4 Dens= 6 Start= 1.400 Inc= 0.200

 **********************************************************************

            Electrostatic Properties Using The SCF Density

 **********************************************************************

       Atomic Center    1 is at   2.286461  0.851499  0.428024
       Atomic Center    2 is at   1.456201  0.031324  0.009077
       Atomic Center    3 is at   1.389996 -0.376297 -1.172714
       Atomic Center    4 is at   0.476173 -0.572400  1.014246
       Atomic Center    5 is at  -0.975909 -0.742689  0.545123
       Atomic Center    6 is at  -1.040348 -1.478131 -0.664597
       Atomic Center    7 is at  -1.779173  0.557935  0.447227
       Atomic Center    8 is at   0.866689 -1.559398  1.253794
       Atomic Center    9 is at   0.493342  0.009267  1.927725
       Atomic Center   10 is at  -1.823343  1.001322  1.439055
       Atomic Center   11 is at  -2.797946  0.282110  0.186778
       Atomic Center   12 is at  -1.277427  1.599654 -0.552475
       Atomic Center   13 is at  -1.980285  2.425431 -0.611347
       Atomic Center   14 is at  -1.177793  1.181585 -1.548628
       Atomic Center   15 is at  -0.317849  2.013489 -0.261407
       Atomic Center   16 is at  -1.474329 -1.353742  1.289191
       Atomic Center   17 is at  -0.276548 -1.219572 -1.180058
      ESP Fit Center   18 is at   2.286461  0.851499  2.388024
      ESP Fit Center   19 is at   2.693968  0.851499  2.345193
      ESP Fit Center   20 is at   2.490214  1.204410  2.345193
      ESP Fit Center   21 is at   2.082707  1.204410  2.345193
      ESP Fit Center   22 is at   2.082707  0.498588  2.345193
      ESP Fit Center   23 is at   2.490214  0.498588  2.345193
      ESP Fit Center   24 is at   3.083665  0.851499  2.218573
      ESP Fit Center   25 is at   2.976860  1.250101  2.218573
      ESP Fit Center   26 is at   2.685063  1.541898  2.218573
      ESP Fit Center   27 is at   2.286461  1.648703  2.218573
      ESP Fit Center   28 is at   1.887859  1.541898  2.218573
      ESP Fit Center   29 is at   1.596062  1.250101  2.218573
      ESP Fit Center   30 is at   2.286461  0.054295  2.218573
      ESP Fit Center   31 is at   2.685063  0.161100  2.218573
      ESP Fit Center   32 is at   2.976860  0.452897  2.218573
      ESP Fit Center   33 is at   3.438520  0.851499  2.013697
      ESP Fit Center   34 is at   3.360724  1.267671  2.013697
      ESP Fit Center   35 is at   3.137843  1.627636  2.013697
      ESP Fit Center   36 is at   2.799978  1.882780  2.013697
      ESP Fit Center   37 is at   2.392760  1.998644  2.013697
      ESP Fit Center   38 is at   1.971185  1.959579  2.013697
      ESP Fit Center   39 is at   1.592190  1.770862  2.013697
      ESP Fit Center   40 is at   2.392760 -0.295646  2.013697
      ESP Fit Center   41 is at   2.799978 -0.179782  2.013697
      ESP Fit Center   42 is at   3.137843  0.075362  2.013697
      ESP Fit Center   43 is at   3.360724  0.435327  2.013697
      ESP Fit Center   44 is at   3.743025  0.851499  1.739520
      ESP Fit Center   45 is at   3.684024  1.261861  1.739520
      ESP Fit Center   46 is at   3.511800  1.638977  1.739520
      ESP Fit Center   47 is at   3.240307  1.952297  1.739520
      ESP Fit Center   48 is at   2.891539  2.176436  1.739520
      ESP Fit Center   49 is at   2.493752  2.293237  1.739520
      ESP Fit Center   50 is at   2.079170  2.293237  1.739520
      ESP Fit Center   51 is at   1.681382  2.176436  1.739520
      ESP Fit Center   52 is at   1.332614  1.952297  1.739520
      ESP Fit Center   53 is at   1.061121  1.638977  1.739520
      ESP Fit Center   54 is at   2.493752 -0.590239  1.739520
      ESP Fit Center   55 is at   2.891539 -0.473438  1.739520
      ESP Fit Center   56 is at   3.240307 -0.249298  1.739520
      ESP Fit Center   57 is at   3.511800  0.064021  1.739520
      ESP Fit Center   58 is at   3.684024  0.441138  1.739520
      ESP Fit Center   59 is at   3.983871  0.851499  1.408024
      ESP Fit Center   60 is at   3.930543  1.273628  1.408024
      ESP Fit Center   61 is at   3.773912  1.669232  1.408024
      ESP Fit Center   62 is at   3.523819  2.013456  1.408024
      ESP Fit Center   63 is at   3.195979  2.284670  1.408024
      ESP Fit Center   64 is at   2.810989  2.465832  1.408024
      ESP Fit Center   65 is at   2.393042  2.545559  1.408024
      ESP Fit Center   66 is at   1.968398  2.518843  1.408024
      ESP Fit Center   67 is at   1.563739  2.387361  1.408024
      ESP Fit Center   68 is at   1.204491  2.159376  1.408024
      ESP Fit Center   69 is at   0.913228  1.849212  1.408024
      ESP Fit Center   70 is at   2.810989 -0.762834  1.408024
      ESP Fit Center   71 is at   3.195979 -0.581671  1.408024
      ESP Fit Center   72 is at   3.523819 -0.310458  1.408024
      ESP Fit Center   73 is at   3.773912  0.033766  1.408024
      ESP Fit Center   74 is at   3.930543  0.429370  1.408024
      ESP Fit Center   75 is at   4.150532  0.851499  1.033697
      ESP Fit Center   76 is at   4.103796  1.266294  1.033697
      ESP Fit Center   77 is at   3.965931  1.660289  1.033697
      ESP Fit Center   78 is at   3.743850  2.013728  1.033697
      ESP Fit Center   79 is at   3.448690  2.308888  1.033697
      ESP Fit Center   80 is at   3.095251  2.530969  1.033697
      ESP Fit Center   81 is at   2.701256  2.668834  1.033697
      ESP Fit Center   82 is at   2.286461  2.715570  1.033697
      ESP Fit Center   83 is at   1.871666  2.668834  1.033697
      ESP Fit Center   84 is at   1.477671  2.530969  1.033697
      ESP Fit Center   85 is at   1.124232  2.308888  1.033697
      ESP Fit Center   86 is at   0.829072  2.013728  1.033697
      ESP Fit Center   87 is at   3.095251 -0.827971  1.033697
      ESP Fit Center   88 is at   3.448690 -0.605890  1.033697
      ESP Fit Center   89 is at   3.743850 -0.310730  1.033697
      ESP Fit Center   90 is at   3.965931  0.042709  1.033697
      ESP Fit Center   91 is at   4.103796  0.436704  1.033697
      ESP Fit Center   92 is at   4.235724  0.851499  0.632900
      ESP Fit Center   93 is at   4.190151  1.270533  0.632900
      ESP Fit Center   94 is at   4.055564  1.669973  0.632900
      ESP Fit Center   95 is at   3.838256  2.031143  0.632900
      ESP Fit Center   96 is at   3.548387  2.337153  0.632900
      ESP Fit Center   97 is at   3.199512  2.573696  0.632900
      ESP Fit Center   98 is at   2.807944  2.729711  0.632900
      ESP Fit Center   99 is at   2.391992  2.797903  0.632900
      ESP Fit Center  100 is at   1.971105  2.775083  0.632900
      ESP Fit Center  101 is at   1.564964  2.662319  0.632900
      ESP Fit Center  102 is at   1.192560  2.464883  0.632900
      ESP Fit Center  103 is at   3.548387 -0.634155  0.632900
      ESP Fit Center  104 is at   3.838256 -0.328145  0.632900
      ESP Fit Center  105 is at   4.055564  0.033025  0.632900
      ESP Fit Center  106 is at   4.190151  0.432465  0.632900
      ESP Fit Center  107 is at   4.235724  0.851499  0.223148
      ESP Fit Center  108 is at   4.190151  1.270533  0.223148
      ESP Fit Center  109 is at   4.055564  1.669973  0.223148
      ESP Fit Center  110 is at   3.838256  2.031143  0.223148
      ESP Fit Center  111 is at   3.548387  2.337153  0.223148
      ESP Fit Center  112 is at   3.199512  2.573696  0.223148
      ESP Fit Center  113 is at   2.807944  2.729711  0.223148
      ESP Fit Center  114 is at   2.391992  2.797903  0.223148
      ESP Fit Center  115 is at   1.971105  2.775083  0.223148
      ESP Fit Center  116 is at   1.564964  2.662319  0.223148
      ESP Fit Center  117 is at   3.548387 -0.634155  0.223148
      ESP Fit Center  118 is at   3.838256 -0.328145  0.223148
      ESP Fit Center  119 is at   4.055564  0.033025  0.223148
      ESP Fit Center  120 is at   4.190151  0.432465  0.223148
      ESP Fit Center  121 is at   4.150532  0.851499 -0.177649
      ESP Fit Center  122 is at   4.103796  1.266294 -0.177649
      ESP Fit Center  123 is at   3.965931  1.660289 -0.177649
      ESP Fit Center  124 is at   3.743850  2.013728 -0.177649
      ESP Fit Center  125 is at   3.448690  2.308888 -0.177649
      ESP Fit Center  126 is at   3.095251  2.530969 -0.177649
      ESP Fit Center  127 is at   2.701256  2.668834 -0.177649
      ESP Fit Center  128 is at   2.286461  2.715570 -0.177649
      ESP Fit Center  129 is at   1.871666  2.668834 -0.177649
      ESP Fit Center  130 is at   1.477671  2.530969 -0.177649
      ESP Fit Center  131 is at   3.448690 -0.605890 -0.177649
      ESP Fit Center  132 is at   3.743850 -0.310730 -0.177649
      ESP Fit Center  133 is at   3.965931  0.042709 -0.177649
      ESP Fit Center  134 is at   4.103796  0.436704 -0.177649
      ESP Fit Center  135 is at   3.983871  0.851499 -0.551976
      ESP Fit Center  136 is at   3.930543  1.273628 -0.551976
      ESP Fit Center  137 is at   3.773912  1.669232 -0.551976
      ESP Fit Center  138 is at   3.523819  2.013456 -0.551976
      ESP Fit Center  139 is at   3.195979  2.284670 -0.551976
      ESP Fit Center  140 is at   2.810989  2.465832 -0.551976
      ESP Fit Center  141 is at   2.393042  2.545559 -0.551976
      ESP Fit Center  142 is at   1.968398  2.518843 -0.551976
      ESP Fit Center  143 is at   1.563739  2.387361 -0.551976
      ESP Fit Center  144 is at   3.523819 -0.310458 -0.551976
      ESP Fit Center  145 is at   3.773912  0.033766 -0.551976
      ESP Fit Center  146 is at   3.930543  0.429370 -0.551976
      ESP Fit Center  147 is at   3.743025  0.851499 -0.883472
      ESP Fit Center  148 is at   3.684024  1.261861 -0.883472
      ESP Fit Center  149 is at   3.511800  1.638977 -0.883472
      ESP Fit Center  150 is at   3.240307  1.952297 -0.883472
      ESP Fit Center  151 is at   2.891539  2.176436 -0.883472
      ESP Fit Center  152 is at   2.493752  2.293237 -0.883472
      ESP Fit Center  153 is at   2.079170  2.293237 -0.883472
      ESP Fit Center  154 is at   1.681382  2.176436 -0.883472
      ESP Fit Center  155 is at   1.332614  1.952297 -0.883472
      ESP Fit Center  156 is at   3.511800  0.064021 -0.883472
      ESP Fit Center  157 is at   3.684024  0.441138 -0.883472
      ESP Fit Center  158 is at   3.438520  0.851499 -1.157649
      ESP Fit Center  159 is at   3.360724  1.267671 -1.157649
      ESP Fit Center  160 is at   3.137843  1.627636 -1.157649
      ESP Fit Center  161 is at   2.799978  1.882780 -1.157649
      ESP Fit Center  162 is at   2.392760  1.998644 -1.157649
      ESP Fit Center  163 is at   1.971185  1.959579 -1.157649
      ESP Fit Center  164 is at   3.360724  0.435327 -1.157649
      ESP Fit Center  165 is at   3.083665  0.851499 -1.362525
      ESP Fit Center  166 is at   2.976860  1.250101 -1.362525
      ESP Fit Center  167 is at   2.685063  1.541898 -1.362525
      ESP Fit Center  168 is at   2.286461  1.648703 -1.362525
      ESP Fit Center  169 is at   2.705399 -0.771487  1.494001
      ESP Fit Center  170 is at   2.763165 -1.126545  1.175775
      ESP Fit Center  171 is at   2.712226 -1.447382  0.812712
      ESP Fit Center  172 is at   3.000739 -1.142803  0.812712
      ESP Fit Center  173 is at   2.545681 -1.716585  0.418767
      ESP Fit Center  174 is at   2.875231 -1.461495  0.418767
      ESP Fit Center  175 is at   3.146686 -1.145288  0.418767
      ESP Fit Center  176 is at   2.259836 -1.908823  0.009077
      ESP Fit Center  177 is at   2.622898 -1.714762  0.009077
      ESP Fit Center  178 is at   2.941125 -1.453600  0.009077
      ESP Fit Center  179 is at   3.202287 -1.135373  0.009077
      ESP Fit Center  180 is at   3.396348 -0.772311  0.009077
      ESP Fit Center  181 is at   2.875231 -1.461495 -0.400613
      ESP Fit Center  182 is at   3.146686 -1.145288 -0.400613
      ESP Fit Center  183 is at   3.348932 -0.780911 -0.400613
      ESP Fit Center  184 is at   3.350988 -0.385750 -0.794558
      ESP Fit Center  185 is at   1.245734  1.764679 -1.157620
      ESP Fit Center  186 is at   0.975201 -2.193632 -0.567041
      ESP Fit Center  187 is at   1.389996 -2.240368 -0.567041
      ESP Fit Center  188 is at   1.804791 -2.193632 -0.567041
      ESP Fit Center  189 is at   2.198786 -2.055767 -0.567041
      ESP Fit Center  190 is at   2.552225 -1.833686 -0.567041
      ESP Fit Center  191 is at   2.847385 -1.538526 -0.567041
      ESP Fit Center  192 is at   3.069466 -1.185087 -0.567041
      ESP Fit Center  193 is at   3.339259 -0.376297 -0.967838
      ESP Fit Center  194 is at   1.074640 -2.299881 -0.967838
      ESP Fit Center  195 is at   1.495527 -2.322701 -0.967838
      ESP Fit Center  196 is at   1.911479 -2.254509 -0.967838
      ESP Fit Center  197 is at   2.303047 -2.098494 -0.967838
      ESP Fit Center  198 is at   2.651922 -1.861951 -0.967838
      ESP Fit Center  199 is at   2.941791 -1.555941 -0.967838
      ESP Fit Center  200 is at   3.159099 -1.194771 -0.967838
      ESP Fit Center  201 is at   3.293686 -0.795331 -0.967838
      ESP Fit Center  202 is at   3.339259 -0.376297 -1.377590
      ESP Fit Center  203 is at   3.293686  0.042737 -1.377590
      ESP Fit Center  204 is at   3.159099  0.442177 -1.377590
      ESP Fit Center  205 is at   1.074640 -2.299881 -1.377590
      ESP Fit Center  206 is at   1.495527 -2.322701 -1.377590
      ESP Fit Center  207 is at   1.911479 -2.254509 -1.377590
      ESP Fit Center  208 is at   2.303047 -2.098494 -1.377590
      ESP Fit Center  209 is at   2.651922 -1.861951 -1.377590
      ESP Fit Center  210 is at   2.941791 -1.555941 -1.377590
      ESP Fit Center  211 is at   3.159099 -1.194771 -1.377590
      ESP Fit Center  212 is at   3.293686 -0.795331 -1.377590
      ESP Fit Center  213 is at   3.254067 -0.376297 -1.778387
      ESP Fit Center  214 is at   3.207331  0.038498 -1.778387
      ESP Fit Center  215 is at   3.069466  0.432493 -1.778387
      ESP Fit Center  216 is at   2.847385  0.785932 -1.778387
      ESP Fit Center  217 is at   2.552225  1.081092 -1.778387
      ESP Fit Center  218 is at   2.198786  1.303173 -1.778387
      ESP Fit Center  219 is at   1.804791  1.441038 -1.778387
      ESP Fit Center  220 is at   1.389996  1.487774 -1.778387
      ESP Fit Center  221 is at   0.975201  1.441038 -1.778387
      ESP Fit Center  222 is at   0.581206  1.303173 -1.778387
      ESP Fit Center  223 is at   0.975201 -2.193632 -1.778387
      ESP Fit Center  224 is at   1.389996 -2.240368 -1.778387
      ESP Fit Center  225 is at   1.804791 -2.193632 -1.778387
      ESP Fit Center  226 is at   2.198786 -2.055767 -1.778387
      ESP Fit Center  227 is at   2.552225 -1.833686 -1.778387
      ESP Fit Center  228 is at   2.847385 -1.538526 -1.778387
      ESP Fit Center  229 is at   3.069466 -1.185087 -1.778387
      ESP Fit Center  230 is at   3.207331 -0.791092 -1.778387
      ESP Fit Center  231 is at   3.087406 -0.376297 -2.152714
      ESP Fit Center  232 is at   3.034079  0.045832 -2.152714
      ESP Fit Center  233 is at   2.877448  0.441436 -2.152714
      ESP Fit Center  234 is at   2.627355  0.785660 -2.152714
      ESP Fit Center  235 is at   2.299514  1.056874 -2.152714
      ESP Fit Center  236 is at   1.914524  1.238036 -2.152714
      ESP Fit Center  237 is at   1.496577  1.317763 -2.152714
      ESP Fit Center  238 is at   1.071933  1.291047 -2.152714
      ESP Fit Center  239 is at   0.667274  1.159565 -2.152714
      ESP Fit Center  240 is at   1.071933 -2.043641 -2.152714
      ESP Fit Center  241 is at   1.496577 -2.070357 -2.152714
      ESP Fit Center  242 is at   1.914524 -1.990630 -2.152714
      ESP Fit Center  243 is at   2.299514 -1.809467 -2.152714
      ESP Fit Center  244 is at   2.627355 -1.538254 -2.152714
      ESP Fit Center  245 is at   2.877448 -1.194030 -2.152714
      ESP Fit Center  246 is at   3.034079 -0.798426 -2.152714
      ESP Fit Center  247 is at   2.846560 -0.376297 -2.484210
      ESP Fit Center  248 is at   2.787559  0.034064 -2.484210
      ESP Fit Center  249 is at   2.615336  0.411181 -2.484210
      ESP Fit Center  250 is at   2.343842  0.724501 -2.484210
      ESP Fit Center  251 is at   1.995075  0.948640 -2.484210
      ESP Fit Center  252 is at   1.597287  1.065441 -2.484210
      ESP Fit Center  253 is at   1.182705  1.065441 -2.484210
      ESP Fit Center  254 is at   0.784918  0.948640 -2.484210
      ESP Fit Center  255 is at   0.436150  0.724501 -2.484210
      ESP Fit Center  256 is at   0.164657  0.411181 -2.484210
      ESP Fit Center  257 is at  -0.007567  0.034064 -2.484210
      ESP Fit Center  258 is at   0.784918 -1.701234 -2.484210
      ESP Fit Center  259 is at   1.182705 -1.818035 -2.484210
      ESP Fit Center  260 is at   1.597287 -1.818035 -2.484210
      ESP Fit Center  261 is at   1.995075 -1.701234 -2.484210
      ESP Fit Center  262 is at   2.343842 -1.477095 -2.484210
      ESP Fit Center  263 is at   2.615336 -1.163775 -2.484210
      ESP Fit Center  264 is at   2.787559 -0.786658 -2.484210
      ESP Fit Center  265 is at   2.542055 -0.376297 -2.758387
      ESP Fit Center  266 is at   2.464259  0.039875 -2.758387
      ESP Fit Center  267 is at   2.241378  0.399840 -2.758387
      ESP Fit Center  268 is at   1.903513  0.654984 -2.758387
      ESP Fit Center  269 is at   1.496295  0.770848 -2.758387
      ESP Fit Center  270 is at   1.074720  0.731783 -2.758387
      ESP Fit Center  271 is at   0.695725  0.543066 -2.758387
      ESP Fit Center  272 is at   0.410496  0.230184 -2.758387
      ESP Fit Center  273 is at   0.257553 -0.164607 -2.758387
      ESP Fit Center  274 is at   0.257553 -0.587987 -2.758387
      ESP Fit Center  275 is at   0.410496 -0.982778 -2.758387
      ESP Fit Center  276 is at   0.695725 -1.295660 -2.758387
      ESP Fit Center  277 is at   1.074720 -1.484377 -2.758387
      ESP Fit Center  278 is at   1.496295 -1.523442 -2.758387
      ESP Fit Center  279 is at   1.903513 -1.407578 -2.758387
      ESP Fit Center  280 is at   2.241378 -1.152434 -2.758387
      ESP Fit Center  281 is at   2.464259 -0.792469 -2.758387
      ESP Fit Center  282 is at   2.187200 -0.376297 -2.963263
      ESP Fit Center  283 is at   2.080395  0.022305 -2.963263
      ESP Fit Center  284 is at   1.788598  0.314102 -2.963263
      ESP Fit Center  285 is at   1.389996  0.420907 -2.963263
      ESP Fit Center  286 is at   0.991394  0.314102 -2.963263
      ESP Fit Center  287 is at   0.699597  0.022305 -2.963263
      ESP Fit Center  288 is at   0.592792 -0.376297 -2.963263
      ESP Fit Center  289 is at   0.699597 -0.774899 -2.963263
      ESP Fit Center  290 is at   0.991394 -1.066696 -2.963263
      ESP Fit Center  291 is at   1.389996 -1.173501 -2.963263
      ESP Fit Center  292 is at   1.788598 -1.066696 -2.963263
      ESP Fit Center  293 is at   2.080395 -0.774899 -2.963263
      ESP Fit Center  294 is at   1.797503 -0.376297 -3.089883
      ESP Fit Center  295 is at   1.593749 -0.023386 -3.089883
      ESP Fit Center  296 is at   1.186243 -0.023386 -3.089883
      ESP Fit Center  297 is at   0.982489 -0.376297 -3.089883
      ESP Fit Center  298 is at   1.186243 -0.729208 -3.089883
      ESP Fit Center  299 is at   1.593749 -0.729208 -3.089883
      ESP Fit Center  300 is at   1.389996 -0.376297 -3.132714
      ESP Fit Center  301 is at   0.074355 -1.268369  2.954393
      ESP Fit Center  302 is at   0.476173 -1.376035  2.954393
      ESP Fit Center  303 is at   0.877991 -1.268369  2.954393
      ESP Fit Center  304 is at  -0.515773 -1.186587  2.760332
      ESP Fit Center  305 is at  -0.226919 -1.503445  2.760332
      ESP Fit Center  306 is at   1.564086 -0.993860  2.760332
      ESP Fit Center  307 is at   1.900947 -0.990752  2.499170
      ESP Fit Center  308 is at   2.222259 -0.572400  2.180944
      ESP Fit Center  309 is at   2.171521 -0.154534  2.180944
      ESP Fit Center  310 is at   2.171521 -0.990266  2.180944
      ESP Fit Center  311 is at   2.416320 -0.572400  1.817881
      ESP Fit Center  312 is at   2.370960 -0.989474  1.817881
      ESP Fit Center  313 is at  -1.247639 -2.919869  0.646899
      ESP Fit Center  314 is at  -0.833057 -2.919869  0.646899
      ESP Fit Center  315 is at  -0.435269 -2.803068  0.646899
      ESP Fit Center  316 is at  -2.413581 -2.475844  0.315403
      ESP Fit Center  317 is at  -2.122318 -2.786008  0.315403
      ESP Fit Center  318 is at  -1.763070 -3.013993  0.315403
      ESP Fit Center  319 is at  -1.358411 -3.145475  0.315403
      ESP Fit Center  320 is at  -0.933767 -3.172191  0.315403
      ESP Fit Center  321 is at  -0.515819 -3.092464  0.315403
      ESP Fit Center  322 is at  -0.130830 -2.911302  0.315403
      ESP Fit Center  323 is at  -2.904419 -1.478131 -0.058924
      ESP Fit Center  324 is at  -2.857683 -1.892926 -0.058924
      ESP Fit Center  325 is at  -2.719818 -2.286921 -0.058924
      ESP Fit Center  326 is at  -2.497737 -2.640360 -0.058924
      ESP Fit Center  327 is at  -2.202577 -2.935520 -0.058924
      ESP Fit Center  328 is at  -1.849138 -3.157601 -0.058924
      ESP Fit Center  329 is at  -1.455143 -3.295466 -0.058924
      ESP Fit Center  330 is at  -1.040348 -3.342202 -0.058924
      ESP Fit Center  331 is at  -0.625553 -3.295466 -0.058924
      ESP Fit Center  332 is at  -0.231558 -3.157601 -0.058924
      ESP Fit Center  333 is at   0.121881 -2.935520 -0.058924
      ESP Fit Center  334 is at   0.417041 -2.640360 -0.058924
      ESP Fit Center  335 is at  -2.978184 -1.267379 -0.459721
      ESP Fit Center  336 is at  -2.978184 -1.688884 -0.459721
      ESP Fit Center  337 is at  -2.887573 -2.100534 -0.459721
      ESP Fit Center  338 is at  -2.710588 -2.483081 -0.459721
      ESP Fit Center  339 is at  -2.455504 -2.818638 -0.459721
      ESP Fit Center  340 is at  -2.134249 -3.091515 -0.459721
      ESP Fit Center  341 is at  -1.761844 -3.288951 -0.459721
      ESP Fit Center  342 is at  -1.355704 -3.401715 -0.459721
      ESP Fit Center  343 is at  -0.934817 -3.424535 -0.459721
      ESP Fit Center  344 is at  -0.518865 -3.356343 -0.459721
      ESP Fit Center  345 is at  -0.127297 -3.200328 -0.459721
      ESP Fit Center  346 is at   0.221578 -2.963785 -0.459721
      ESP Fit Center  347 is at   0.511447 -2.657775 -0.459721
      ESP Fit Center  348 is at  -2.978184 -1.267379 -0.869473
      ESP Fit Center  349 is at  -2.978184 -1.688884 -0.869473
      ESP Fit Center  350 is at  -2.887573 -2.100534 -0.869473
      ESP Fit Center  351 is at  -2.710588 -2.483081 -0.869473
      ESP Fit Center  352 is at  -2.455504 -2.818638 -0.869473
      ESP Fit Center  353 is at  -2.134249 -3.091515 -0.869473
      ESP Fit Center  354 is at  -1.761844 -3.288951 -0.869473
      ESP Fit Center  355 is at  -1.355704 -3.401715 -0.869473
      ESP Fit Center  356 is at  -0.934817 -3.424535 -0.869473
      ESP Fit Center  357 is at  -0.518865 -3.356343 -0.869473
      ESP Fit Center  358 is at  -0.127297 -3.200328 -0.869473
      ESP Fit Center  359 is at   0.221578 -2.963785 -0.869473
      ESP Fit Center  360 is at  -2.719818 -0.669341 -1.270270
      ESP Fit Center  361 is at  -2.857683 -1.063336 -1.270270
      ESP Fit Center  362 is at  -2.904419 -1.478131 -1.270270
      ESP Fit Center  363 is at  -2.857683 -1.892926 -1.270270
      ESP Fit Center  364 is at  -2.719818 -2.286921 -1.270270
      ESP Fit Center  365 is at  -2.497737 -2.640360 -1.270270
      ESP Fit Center  366 is at  -2.202577 -2.935520 -1.270270
      ESP Fit Center  367 is at  -1.849138 -3.157601 -1.270270
      ESP Fit Center  368 is at  -1.455143 -3.295466 -1.270270
      ESP Fit Center  369 is at  -1.040348 -3.342202 -1.270270
      ESP Fit Center  370 is at  -0.625553 -3.295466 -1.270270
      ESP Fit Center  371 is at  -0.231558 -3.157601 -1.270270
      ESP Fit Center  372 is at   0.121881 -2.935520 -1.270270
      ESP Fit Center  373 is at  -2.413581 -0.480419 -1.644597
      ESP Fit Center  374 is at  -2.618560 -0.853273 -1.644597
      ESP Fit Center  375 is at  -2.724373 -1.265389 -1.644597
      ESP Fit Center  376 is at  -2.724373 -1.690873 -1.644597
      ESP Fit Center  377 is at  -2.618560 -2.102989 -1.644597
      ESP Fit Center  378 is at  -2.413581 -2.475844 -1.644597
      ESP Fit Center  379 is at  -2.122318 -2.786008 -1.644597
      ESP Fit Center  380 is at  -1.763070 -3.013993 -1.644597
      ESP Fit Center  381 is at  -1.358411 -3.145475 -1.644597
      ESP Fit Center  382 is at  -0.933767 -3.172191 -1.644597
      ESP Fit Center  383 is at  -0.515819 -3.092464 -1.644597
      ESP Fit Center  384 is at  -0.130830 -2.911302 -1.644597
      ESP Fit Center  385 is at  -1.994194 -0.377334 -1.976093
      ESP Fit Center  386 is at  -2.265687 -0.690653 -1.976093
      ESP Fit Center  387 is at  -2.437911 -1.067770 -1.976093
      ESP Fit Center  388 is at  -2.496912 -1.478131 -1.976093
      ESP Fit Center  389 is at  -2.437911 -1.888493 -1.976093
      ESP Fit Center  390 is at  -2.265687 -2.265609 -1.976093
      ESP Fit Center  391 is at  -1.994194 -2.578929 -1.976093
      ESP Fit Center  392 is at  -1.645426 -2.803068 -1.976093
      ESP Fit Center  393 is at  -1.247639 -2.919869 -1.976093
      ESP Fit Center  394 is at  -0.833057 -2.919869 -1.976093
      ESP Fit Center  395 is at  -0.435269 -2.803068 -1.976093
      ESP Fit Center  396 is at  -1.355624 -0.370051 -2.250270
      ESP Fit Center  397 is at  -1.734619 -0.558768 -2.250270
      ESP Fit Center  398 is at  -2.019848 -0.871650 -2.250270
      ESP Fit Center  399 is at  -2.172791 -1.266441 -2.250270
      ESP Fit Center  400 is at  -2.172791 -1.689821 -2.250270
      ESP Fit Center  401 is at  -2.019848 -2.084612 -2.250270
      ESP Fit Center  402 is at  -1.734619 -2.397494 -2.250270
      ESP Fit Center  403 is at  -1.355624 -2.586211 -2.250270
      ESP Fit Center  404 is at  -0.934049 -2.625276 -2.250270
      ESP Fit Center  405 is at  -0.526831 -2.509412 -2.250270
      ESP Fit Center  406 is at  -1.438950 -0.787732 -2.455146
      ESP Fit Center  407 is at  -1.730747 -1.079529 -2.455146
      ESP Fit Center  408 is at  -1.837552 -1.478131 -2.455146
      ESP Fit Center  409 is at  -1.730747 -1.876733 -2.455146
      ESP Fit Center  410 is at  -1.438950 -2.168530 -2.455146
      ESP Fit Center  411 is at  -1.040348 -2.275335 -2.455146
      ESP Fit Center  412 is at  -1.244101 -1.125220 -2.581766
      ESP Fit Center  413 is at  -1.447855 -1.478131 -2.581766
      ESP Fit Center  414 is at  -1.244101 -1.831042 -2.581766
      ESP Fit Center  415 is at  -3.203947  0.139583  1.932151
      ESP Fit Center  416 is at  -3.028371 -0.244876  1.932151
      ESP Fit Center  417 is at  -3.086137 -0.599934  1.613925
      ESP Fit Center  418 is at  -3.441602  1.558185  1.250862
      ESP Fit Center  419 is at  -3.039897  2.186655  0.856917
      ESP Fit Center  420 is at  -3.341949  1.899534  0.856917
      ESP Fit Center  421 is at  -3.264097  2.042859  0.447227
      ESP Fit Center  422 is at   0.866689 -1.559398  2.933794
      ESP Fit Center  423 is at   1.301505 -1.559398  2.876549
      ESP Fit Center  424 is at   0.431873 -1.559398  2.876549
      ESP Fit Center  425 is at   0.649281 -1.935960  2.876549
      ESP Fit Center  426 is at   1.084097 -1.935960  2.876549
      ESP Fit Center  427 is at   1.706689 -1.559398  2.708717
      ESP Fit Center  428 is at   1.594150 -1.139398  2.708717
      ESP Fit Center  429 is at   0.139228 -1.979398  2.708717
      ESP Fit Center  430 is at   0.446689 -2.286859  2.708717
      ESP Fit Center  431 is at   0.866689 -2.399398  2.708717
      ESP Fit Center  432 is at   1.286689 -2.286859  2.708717
      ESP Fit Center  433 is at   1.594150 -1.979398  2.708717
      ESP Fit Center  434 is at   2.054628 -1.559398  2.441733
      ESP Fit Center  435 is at   1.974410 -1.130265  2.441733
      ESP Fit Center  436 is at  -0.143317 -2.184768  2.441733
      ESP Fit Center  437 is at   0.150796 -2.507394  2.441733
      ESP Fit Center  438 is at   0.541594 -2.701989  2.441733
      ESP Fit Center  439 is at   0.976298 -2.742270  2.441733
      ESP Fit Center  440 is at   1.396199 -2.622798  2.441733
      ESP Fit Center  441 is at   1.744587 -2.359708  2.441733
      ESP Fit Center  442 is at   1.974410 -1.988531  2.441733
      ESP Fit Center  443 is at   2.321612 -1.559398  2.093794
      ESP Fit Center  444 is at   2.256974 -1.130552  2.093794
      ESP Fit Center  445 is at  -0.199845 -2.548997  2.093794
      ESP Fit Center  446 is at   0.139228 -2.819398  2.093794
      ESP Fit Center  447 is at   0.542938 -2.977843  2.093794
      ESP Fit Center  448 is at   0.975416 -3.010252  2.093794
      ESP Fit Center  449 is at   1.398232 -2.913747  2.093794
      ESP Fit Center  450 is at   1.773819 -2.696902  2.093794
      ESP Fit Center  451 is at   2.068803 -2.378985  2.093794
      ESP Fit Center  452 is at   2.256974 -1.988244  2.093794
      ESP Fit Center  453 is at   2.489444 -1.559398  1.688610
      ESP Fit Center  454 is at   2.434150 -1.139398  1.688610
      ESP Fit Center  455 is at  -0.280772 -2.706859  1.688610
      ESP Fit Center  456 is at   0.055311 -2.964745  1.688610
      ESP Fit Center  457 is at   0.446689 -3.126859  1.688610
      ESP Fit Center  458 is at   0.866689 -3.182153  1.688610
      ESP Fit Center  459 is at   1.286689 -3.126859  1.688610
      ESP Fit Center  460 is at   1.678067 -2.964745  1.688610
      ESP Fit Center  461 is at   2.014150 -2.706859  1.688610
      ESP Fit Center  462 is at   2.272036 -2.370776  1.688610
      ESP Fit Center  463 is at   2.434150 -1.979398  1.688610
      ESP Fit Center  464 is at   2.546689 -1.559398  1.253794
      ESP Fit Center  465 is at  -0.204183 -2.853860  1.253794
      ESP Fit Center  466 is at   0.151380 -3.079507  1.253794
      ESP Fit Center  467 is at   0.551888 -3.209641  1.253794
      ESP Fit Center  468 is at   0.972177 -3.236083  1.253794
      ESP Fit Center  469 is at   1.385838 -3.157173  1.253794
      ESP Fit Center  470 is at   1.766878 -2.977869  1.253794
      ESP Fit Center  471 is at   2.091356 -2.709437  1.253794
      ESP Fit Center  472 is at   2.338884 -2.368744  1.253794
      ESP Fit Center  473 is at   2.493909 -1.977197  1.253794
      ESP Fit Center  474 is at  -0.280772 -2.706859  0.818978
      ESP Fit Center  475 is at   0.055311 -2.964745  0.818978
      ESP Fit Center  476 is at   0.446689 -3.126859  0.818978
      ESP Fit Center  477 is at   0.866689 -3.182153  0.818978
      ESP Fit Center  478 is at   1.286689 -3.126859  0.818978
      ESP Fit Center  479 is at   1.678067 -2.964745  0.818978
      ESP Fit Center  480 is at   2.014150 -2.706859  0.818978
      ESP Fit Center  481 is at   2.272036 -2.370776  0.818978
      ESP Fit Center  482 is at   2.434150 -1.979398  0.818978
      ESP Fit Center  483 is at   0.139228 -2.819398  0.413794
      ESP Fit Center  484 is at   0.542938 -2.977843  0.413794
      ESP Fit Center  485 is at   0.975416 -3.010252  0.413794
      ESP Fit Center  486 is at   1.398232 -2.913747  0.413794
      ESP Fit Center  487 is at   1.773819 -2.696902  0.413794
      ESP Fit Center  488 is at   2.068803 -2.378985  0.413794
      ESP Fit Center  489 is at   2.256974 -1.988244  0.413794
      ESP Fit Center  490 is at   0.541594 -2.701989  0.065855
      ESP Fit Center  491 is at   0.976298 -2.742270  0.065855
      ESP Fit Center  492 is at   1.396199 -2.622798  0.065855
      ESP Fit Center  493 is at   1.744587 -2.359708  0.065855
      ESP Fit Center  494 is at   0.866689 -2.399398 -0.201129
      ESP Fit Center  495 is at   1.286689 -2.286859 -0.201129
      ESP Fit Center  496 is at   0.493342  0.009267  3.607725
      ESP Fit Center  497 is at   0.928158  0.009267  3.550480
      ESP Fit Center  498 is at   0.710750  0.385829  3.550480
      ESP Fit Center  499 is at   0.275934  0.385829  3.550480
      ESP Fit Center  500 is at   0.058526  0.009267  3.550480
      ESP Fit Center  501 is at   0.275934 -0.367295  3.550480
      ESP Fit Center  502 is at   0.710750 -0.367295  3.550480
      ESP Fit Center  503 is at   1.333342  0.009267  3.382648
      ESP Fit Center  504 is at   1.220803  0.429267  3.382648
      ESP Fit Center  505 is at   0.913342  0.736728  3.382648
      ESP Fit Center  506 is at   0.493342  0.849267  3.382648
      ESP Fit Center  507 is at   0.073342  0.736728  3.382648
      ESP Fit Center  508 is at  -0.234119  0.429267  3.382648
      ESP Fit Center  509 is at  -0.346658  0.009267  3.382648
      ESP Fit Center  510 is at  -0.234119 -0.410733  3.382648
      ESP Fit Center  511 is at   0.073342 -0.718194  3.382648
      ESP Fit Center  512 is at   0.493342 -0.830733  3.382648
      ESP Fit Center  513 is at   0.913342 -0.718194  3.382648
      ESP Fit Center  514 is at   1.220803 -0.410733  3.382648
      ESP Fit Center  515 is at   1.681281  0.009267  3.115664
      ESP Fit Center  516 is at   1.601062  0.438400  3.115664
      ESP Fit Center  517 is at   1.371240  0.809577  3.115664
      ESP Fit Center  518 is at   1.022852  1.072667  3.115664
      ESP Fit Center  519 is at   0.602951  1.192139  3.115664
      ESP Fit Center  520 is at   0.168247  1.151858  3.115664
      ESP Fit Center  521 is at  -0.222551  0.957263  3.115664
      ESP Fit Center  522 is at  -0.516664  0.634636  3.115664
      ESP Fit Center  523 is at  -0.674370  0.227550  3.115664
      ESP Fit Center  524 is at  -0.674370 -0.209016  3.115664
      ESP Fit Center  525 is at  -0.516664 -0.616103  3.115664
      ESP Fit Center  526 is at  -0.222551 -0.938729  3.115664
      ESP Fit Center  527 is at   0.168247 -1.133324  3.115664
      ESP Fit Center  528 is at   0.602951 -1.173605  3.115664
      ESP Fit Center  529 is at   1.022852 -1.054133  3.115664
      ESP Fit Center  530 is at   1.371240 -0.791043  3.115664
      ESP Fit Center  531 is at   1.601062 -0.419866  3.115664
      ESP Fit Center  532 is at   1.948265  0.009267  2.767725
      ESP Fit Center  533 is at   1.883627  0.438113  2.767725
      ESP Fit Center  534 is at   1.695456  0.828854  2.767725
      ESP Fit Center  535 is at   1.400471  1.146771  2.767725
      ESP Fit Center  536 is at   1.024885  1.363616  2.767725
      ESP Fit Center  537 is at   0.602069  1.460121  2.767725
      ESP Fit Center  538 is at   0.169591  1.427712  2.767725
      ESP Fit Center  539 is at  -0.234119  1.269267  2.767725
      ESP Fit Center  540 is at  -0.573192  0.998866  2.767725
      ESP Fit Center  541 is at  -0.817498  0.640534  2.767725
      ESP Fit Center  542 is at  -0.945330  0.226112  2.767725
      ESP Fit Center  543 is at  -0.945330 -0.207578  2.767725
      ESP Fit Center  544 is at  -0.817498 -0.622000  2.767725
      ESP Fit Center  545 is at   1.695456 -0.810320  2.767725
      ESP Fit Center  546 is at   1.883627 -0.419579  2.767725
      ESP Fit Center  547 is at   2.116097  0.009267  2.362541
      ESP Fit Center  548 is at   2.060803  0.429267  2.362541
      ESP Fit Center  549 is at   1.898689  0.820645  2.362541
      ESP Fit Center  550 is at   1.640803  1.156728  2.362541
      ESP Fit Center  551 is at   1.304720  1.414614  2.362541
      ESP Fit Center  552 is at   0.913342  1.576728  2.362541
      ESP Fit Center  553 is at   0.493342  1.632022  2.362541
      ESP Fit Center  554 is at   0.073342  1.576728  2.362541
      ESP Fit Center  555 is at  -0.318036  1.414614  2.362541
      ESP Fit Center  556 is at   1.012491  1.607042  1.927725
      ESP Fit Center  557 is at   0.598830  1.685952  1.927725
      ESP Fit Center  558 is at   0.178541  1.659510  1.927725
      ESP Fit Center  559 is at  -0.221967  1.529376  1.927725
      ESP Fit Center  560 is at   0.493342  1.632022  1.492909
      ESP Fit Center  561 is at   0.073342  1.576728  1.492909
      ESP Fit Center  562 is at  -1.823343  1.001322  3.119055
      ESP Fit Center  563 is at  -1.388527  1.001322  3.061810
      ESP Fit Center  564 is at  -1.605935  1.377884  3.061810
      ESP Fit Center  565 is at  -2.040751  1.377884  3.061810
      ESP Fit Center  566 is at  -2.258159  1.001322  3.061810
      ESP Fit Center  567 is at  -2.040751  0.624760  3.061810
      ESP Fit Center  568 is at  -1.605935  0.624760  3.061810
      ESP Fit Center  569 is at  -0.983343  1.001322  2.893978
      ESP Fit Center  570 is at  -1.095882  1.421322  2.893978
      ESP Fit Center  571 is at  -1.403343  1.728783  2.893978
      ESP Fit Center  572 is at  -1.823343  1.841322  2.893978
      ESP Fit Center  573 is at  -2.243343  1.728783  2.893978
      ESP Fit Center  574 is at  -2.550804  1.421322  2.893978
      ESP Fit Center  575 is at  -2.663343  1.001322  2.893978
      ESP Fit Center  576 is at  -2.550804  0.581322  2.893978
      ESP Fit Center  577 is at  -2.243343  0.273860  2.893978
      ESP Fit Center  578 is at  -1.823343  0.161322  2.893978
      ESP Fit Center  579 is at  -1.403343  0.273860  2.893978
      ESP Fit Center  580 is at  -1.095882  0.581322  2.893978
      ESP Fit Center  581 is at  -0.715623  1.430455  2.626994
      ESP Fit Center  582 is at  -0.945445  1.801631  2.626994
      ESP Fit Center  583 is at  -1.293833  2.064722  2.626994
      ESP Fit Center  584 is at  -1.713734  2.184194  2.626994
      ESP Fit Center  585 is at  -2.148438  2.143912  2.626994
      ESP Fit Center  586 is at  -2.539236  1.949318  2.626994
      ESP Fit Center  587 is at  -2.833349  1.626691  2.626994
      ESP Fit Center  588 is at  -2.991056  1.219605  2.626994
      ESP Fit Center  589 is at  -2.991056  0.783039  2.626994
      ESP Fit Center  590 is at  -2.833349  0.375952  2.626994
      ESP Fit Center  591 is at  -2.539236  0.053326  2.626994
      ESP Fit Center  592 is at  -2.148438 -0.141269  2.626994
      ESP Fit Center  593 is at  -1.713734 -0.181550  2.626994
      ESP Fit Center  594 is at  -1.293833 -0.062078  2.626994
      ESP Fit Center  595 is at  -0.433059  1.430168  2.279055
      ESP Fit Center  596 is at  -0.621230  1.820909  2.279055
      ESP Fit Center  597 is at  -0.916214  2.138826  2.279055
      ESP Fit Center  598 is at  -1.291800  2.355671  2.279055
      ESP Fit Center  599 is at  -1.714617  2.452176  2.279055
      ESP Fit Center  600 is at  -2.147094  2.419767  2.279055
      ESP Fit Center  601 is at  -2.550804  2.261322  2.279055
      ESP Fit Center  602 is at  -2.889877  1.990921  2.279055
      ESP Fit Center  603 is at  -3.134183  1.632589  2.279055
      ESP Fit Center  604 is at  -3.262015  1.218167  2.279055
      ESP Fit Center  605 is at  -3.262015  0.784477  2.279055
      ESP Fit Center  606 is at  -3.134183  0.370055  2.279055
      ESP Fit Center  607 is at  -2.889877  0.011723  2.279055
      ESP Fit Center  608 is at  -2.550804 -0.258678  2.279055
      ESP Fit Center  609 is at  -0.417996  1.812700  1.873871
      ESP Fit Center  610 is at  -0.675882  2.148783  1.873871
      ESP Fit Center  611 is at  -1.011965  2.406669  1.873871
      ESP Fit Center  612 is at  -1.403343  2.568783  1.873871
      ESP Fit Center  613 is at  -1.823343  2.624077  1.873871
      ESP Fit Center  614 is at  -2.243343  2.568783  1.873871
      ESP Fit Center  615 is at  -2.634721  2.406669  1.873871
      ESP Fit Center  616 is at  -2.970804  2.148783  1.873871
      ESP Fit Center  617 is at  -3.228690  1.812700  1.873871
      ESP Fit Center  618 is at  -3.390804  1.421322  1.873871
      ESP Fit Center  619 is at  -3.446098  1.001322  1.873871
      ESP Fit Center  620 is at  -3.390804  0.581322  1.873871
      ESP Fit Center  621 is at  -0.351148  1.810668  1.439055
      ESP Fit Center  622 is at  -0.598676  2.151361  1.439055
      ESP Fit Center  623 is at  -0.923154  2.419793  1.439055
      ESP Fit Center  624 is at  -1.304195  2.599097  1.439055
      ESP Fit Center  625 is at  -1.717855  2.678007  1.439055
      ESP Fit Center  626 is at  -2.138144  2.651564  1.439055
      ESP Fit Center  627 is at  -2.538652  2.521431  1.439055
      ESP Fit Center  628 is at  -2.894215  2.295784  1.439055
      ESP Fit Center  629 is at  -3.182492  1.988801  1.439055
      ESP Fit Center  630 is at  -3.385368  1.619771  1.439055
      ESP Fit Center  631 is at  -2.634721  2.406669  1.004239
      ESP Fit Center  632 is at  -3.525407  0.702110  1.641701
      ESP Fit Center  633 is at  -3.637946  0.282110  1.641701
      ESP Fit Center  634 is at  -3.525407 -0.137890  1.641701
      ESP Fit Center  635 is at  -3.217946 -0.445352  1.641701
      ESP Fit Center  636 is at  -3.807952  0.907479  1.374717
      ESP Fit Center  637 is at  -3.965658  0.500393  1.374717
      ESP Fit Center  638 is at  -3.965658  0.063826  1.374717
      ESP Fit Center  639 is at  -3.807952 -0.343260  1.374717
      ESP Fit Center  640 is at  -3.513839 -0.665886  1.374717
      ESP Fit Center  641 is at  -3.123041 -0.860481  1.374717
      ESP Fit Center  642 is at  -3.864480  1.271709  1.026778
      ESP Fit Center  643 is at  -4.108786  0.913377  1.026778
      ESP Fit Center  644 is at  -4.236618  0.498955  1.026778
      ESP Fit Center  645 is at  -4.236618  0.065265  1.026778
      ESP Fit Center  646 is at  -4.108786 -0.349158  1.026778
      ESP Fit Center  647 is at  -3.864480 -0.707489  1.026778
      ESP Fit Center  648 is at  -3.525407 -0.977890  1.026778
      ESP Fit Center  649 is at  -3.121697 -1.136335  1.026778
      ESP Fit Center  650 is at  -3.609324  1.687457  0.621594
      ESP Fit Center  651 is at  -3.945407  1.429571  0.621594
      ESP Fit Center  652 is at  -4.203293  1.093487  0.621594
      ESP Fit Center  653 is at  -4.365407  0.702110  0.621594
      ESP Fit Center  654 is at  -4.420701  0.282110  0.621594
      ESP Fit Center  655 is at  -4.365407 -0.137890  0.621594
      ESP Fit Center  656 is at  -4.203293 -0.529268  0.621594
      ESP Fit Center  657 is at  -3.945407 -0.865352  0.621594
      ESP Fit Center  658 is at  -3.609324 -1.123238  0.621594
      ESP Fit Center  659 is at  -3.217946 -1.285352  0.621594
      ESP Fit Center  660 is at  -3.513255  1.802219  0.186778
      ESP Fit Center  661 is at  -3.868818  1.576572  0.186778
      ESP Fit Center  662 is at  -4.157095  1.269589  0.186778
      ESP Fit Center  663 is at  -4.359971  0.900559  0.186778
      ESP Fit Center  664 is at  -4.464699  0.492670  0.186778
      ESP Fit Center  665 is at  -4.464699  0.071550  0.186778
      ESP Fit Center  666 is at  -4.359971 -0.336339  0.186778
      ESP Fit Center  667 is at  -4.157095 -0.705369  0.186778
      ESP Fit Center  668 is at  -3.868818 -1.012352  0.186778
      ESP Fit Center  669 is at  -3.513255 -1.238000  0.186778
      ESP Fit Center  670 is at  -3.112747 -1.368133  0.186778
      ESP Fit Center  671 is at  -3.609324  1.687457 -0.248038
      ESP Fit Center  672 is at  -3.945407  1.429571 -0.248038
      ESP Fit Center  673 is at  -4.203293  1.093487 -0.248038
      ESP Fit Center  674 is at  -4.365407  0.702110 -0.248038
      ESP Fit Center  675 is at  -4.420701  0.282110 -0.248038
      ESP Fit Center  676 is at  -4.365407 -0.137890 -0.248038
      ESP Fit Center  677 is at  -4.203293 -0.529268 -0.248038
      ESP Fit Center  678 is at  -3.945407 -0.865352 -0.248038
      ESP Fit Center  679 is at  -3.609324 -1.123238 -0.248038
      ESP Fit Center  680 is at  -3.217946 -1.285352 -0.248038
      ESP Fit Center  681 is at  -3.525407  1.542110 -0.653222
      ESP Fit Center  682 is at  -3.864480  1.271709 -0.653222
      ESP Fit Center  683 is at  -4.108786  0.913377 -0.653222
      ESP Fit Center  684 is at  -4.236618  0.498955 -0.653222
      ESP Fit Center  685 is at  -4.236618  0.065265 -0.653222
      ESP Fit Center  686 is at  -4.108786 -0.349158 -0.653222
      ESP Fit Center  687 is at  -3.864480 -0.707489 -0.653222
      ESP Fit Center  688 is at  -3.525407 -0.977890 -0.653222
      ESP Fit Center  689 is at  -3.121697 -1.136335 -0.653222
      ESP Fit Center  690 is at  -3.513839  1.230106 -1.001161
      ESP Fit Center  691 is at  -3.807952  0.907479 -1.001161
      ESP Fit Center  692 is at  -3.965658  0.500393 -1.001161
      ESP Fit Center  693 is at  -3.965658  0.063826 -1.001161
      ESP Fit Center  694 is at  -3.807952 -0.343260 -1.001161
      ESP Fit Center  695 is at  -3.513839 -0.665886 -1.001161
      ESP Fit Center  696 is at  -3.123041 -0.860481 -1.001161
      ESP Fit Center  697 is at  -3.217946  1.009571 -1.268145
      ESP Fit Center  698 is at  -3.525407  0.702110 -1.268145
      ESP Fit Center  699 is at  -3.637946  0.282110 -1.268145
      ESP Fit Center  700 is at  -3.525407 -0.137890 -1.268145
      ESP Fit Center  701 is at  -3.217946 -0.445352 -1.268145
      ESP Fit Center  702 is at  -2.797946 -0.557890 -1.268145
      ESP Fit Center  703 is at  -3.015354  0.658671 -1.435977
      ESP Fit Center  704 is at  -3.232762  0.282110 -1.435977
      ESP Fit Center  705 is at  -3.015354 -0.094452 -1.435977
      ESP Fit Center  706 is at  -2.580538 -0.094452 -1.435977
      ESP Fit Center  707 is at  -2.797946  0.282110 -1.493222
      ESP Fit Center  708 is at  -1.169778  2.761374  1.193611
      ESP Fit Center  709 is at  -1.596709  2.721813  1.193611
      ESP Fit Center  710 is at  -1.066100  3.069464  0.932449
      ESP Fit Center  711 is at  -1.488754  3.069464  0.932449
      ESP Fit Center  712 is at  -1.066960  3.333009  0.614223
      ESP Fit Center  713 is at  -0.562100  3.531094 -0.962165
      ESP Fit Center  714 is at  -3.326509  1.391283 -0.962165
      ESP Fit Center  715 is at  -0.368646  3.313797 -1.356110
      ESP Fit Center  716 is at  -0.758383  3.469083 -1.356110
      ESP Fit Center  717 is at  -3.206201  1.389887 -1.356110
      ESP Fit Center  718 is at  -3.116014  0.980162 -1.356110
      ESP Fit Center  719 is at   0.468659  1.599654 -1.719172
      ESP Fit Center  720 is at  -0.285537  3.036655 -1.719172
      ESP Fit Center  721 is at  -0.658256  3.232273 -1.719172
      ESP Fit Center  722 is at  -1.066960  3.333009 -1.719172
      ESP Fit Center  723 is at  -3.023513  1.599654 -1.719172
      ESP Fit Center  724 is at  -2.972775  1.181788 -1.719172
      ESP Fit Center  725 is at  -2.823510  0.788207 -1.719172
      ESP Fit Center  726 is at  -0.028229  2.402465 -2.037399
      ESP Fit Center  727 is at  -0.305009  2.721885 -2.037399
      ESP Fit Center  728 is at  -0.660567  2.950388 -2.037399
      ESP Fit Center  729 is at  -1.066100  3.069464 -2.037399
      ESP Fit Center  730 is at  -2.762351  1.599654 -2.037399
      ESP Fit Center  731 is at  -0.757385  2.644039 -2.298561
      ESP Fit Center  732 is at  -1.169778  2.761374 -2.298561
      ESP Fit Center  733 is at  -1.596709  2.721813 -2.298561
      ESP Fit Center  734 is at  -1.980519  2.530699 -2.298561
      ESP Fit Center  735 is at  -2.197693  2.801993  1.011408
      ESP Fit Center  736 is at  -1.560285  3.152892  0.843576
      ESP Fit Center  737 is at  -1.980285  3.265431  0.843576
      ESP Fit Center  738 is at  -2.400285  3.152892  0.843576
[...]
 4283 Fit      -0.112677
 4284 Fit      -0.111596
 4285 Fit      -0.111915
 4286 Fit      -0.113597
 4287 Fit      -0.116655
 4288 Fit      -0.121159
 4289 Fit      -0.127256
 4290 Fit      -0.135209
 4291 Fit      -0.122678
 4292 Fit      -0.119853
 4293 Fit      -0.119103
 4294 Fit      -0.120211
 4295 Fit      -0.123081
 4296 Fit      -0.127722
 4297 Fit      -0.134237
 4298 Fit      -0.131027
 4299 Fit      -0.128574
 4300 Fit      -0.128788
 4301 Fit      -0.131340
 4302 Fit      -0.136122
 4303 Fit      -0.139800
 4304 Fit      -0.140731
 4305 Fit      -0.145077
 4306 Fit      -0.092004
 4307 Fit      -0.095847
 4308 Fit      -0.094919
 4309 Fit      -0.091363
 4310 Fit      -0.089134
 4311 Fit      -0.090101
 4312 Fit      -0.093250
 4313 Fit      -0.100845
 4314 Fit      -0.101163
 4315 Fit      -0.099010
 4316 Fit      -0.095251
 4317 Fit      -0.091333
 4318 Fit      -0.088423
 4319 Fit      -0.087094
 4320 Fit      -0.087395
 4321 Fit      -0.089080
 4322 Fit      -0.091776
 4323 Fit      -0.095085
 4324 Fit      -0.098438
 4325 Fit      -0.107246
 4326 Fit      -0.108359
 4327 Fit      -0.107394
 4328 Fit      -0.104499
 4329 Fit      -0.100392
 4330 Fit      -0.095960
 4331 Fit      -0.091920
 4332 Fit      -0.088742
 4333 Fit      -0.086679
 4334 Fit      -0.085771
 4335 Fit      -0.085919
 4336 Fit      -0.086994
 4337 Fit      -0.088836
 4338 Fit      -0.091266
 4339 Fit      -0.094166
 4340 Fit      -0.097483
 4341 Fit      -0.101075
 4342 Fit      -0.104554
 4343 Fit      -0.115395
 4344 Fit      -0.117371
 4345 Fit      -0.117263
 4346 Fit      -0.114958
 4347 Fit      -0.110922
 4348 Fit      -0.105941
 4349 Fit      -0.100775
 4350 Fit      -0.095966
 4351 Fit      -0.091845
 4352 Fit      -0.088623
 4353 Fit      -0.086443
 4354 Fit      -0.085298
 4355 Fit      -0.085038
 4356 Fit      -0.085538
 4357 Fit      -0.086747
 4358 Fit      -0.103647
 4359 Fit      -0.107830
 4360 Fit      -0.111955
 4361 Fit      -0.125793
 4362 Fit      -0.128992
 4363 Fit      -0.129825
 4364 Fit      -0.127946
 4365 Fit      -0.123715
 4366 Fit      -0.117980
 4367 Fit      -0.111670
 4368 Fit      -0.105495
 4369 Fit      -0.099867
 4370 Fit      -0.094965
 4371 Fit      -0.121081
 4372 Fit      -0.139185
 4373 Fit      -0.140874
 4374 Fit      -0.134203
 4375 Fit      -0.126463
 4376 Fit      -0.118647
 4377 Fit      -0.111365
 4378 Fit      -0.104877
 4379 Fit      -0.132397
 4380 Fit      -0.122715
 4381 Fit      -0.114295
 4382 Fit      -0.137694
 4383 Fit      -0.126562
 4384 Fit      -0.078982
 4385 Fit      -0.082265
 4386 Fit      -0.080491
 4387 Fit      -0.077542
 4388 Fit      -0.076557
 4389 Fit      -0.078075
 4390 Fit      -0.080808
 4391 Fit      -0.086479
 4392 Fit      -0.085485
 4393 Fit      -0.082629
 4394 Fit      -0.079234
 4395 Fit      -0.076516
 4396 Fit      -0.075053
 4397 Fit      -0.074916
 4398 Fit      -0.075902
 4399 Fit      -0.077739
 4400 Fit      -0.080209
 4401 Fit      -0.082988
 4402 Fit      -0.085379
 4403 Fit      -0.091276
 4404 Fit      -0.088940
 4405 Fit      -0.085405
 4406 Fit      -0.081654
 4407 Fit      -0.078375
 4408 Fit      -0.075918
 4409 Fit      -0.074401
 4410 Fit      -0.073795
 4411 Fit      -0.073992
 4412 Fit      -0.074845
 4413 Fit      -0.076198
 4414 Fit      -0.077946
 4415 Fit      -0.080079
 4416 Fit      -0.082642
 4417 Fit      -0.096211
 4418 Fit      -0.092459
 4419 Fit      -0.088067
 4420 Fit      -0.083817
 4421 Fit      -0.080142
 4422 Fit      -0.077236
 4423 Fit      -0.075157
 4424 Fit      -0.073884
 4425 Fit      -0.073351
 4426 Fit      -0.073463
 4427 Fit      -0.074112
 4428 Fit      -0.075178
 4429 Fit      -0.076542
 4430 Fit      -0.078110
 4431 Fit      -0.100725
 4432 Fit      -0.095446
 4433 Fit      -0.090197
 4434 Fit      -0.085483
 4435 Fit      -0.081515
 4436 Fit      -0.078366
 4437 Fit      -0.076035
 4438 Fit      -0.074479
 4439 Fit      -0.073633
 4440 Fit      -0.073415
 4441 Fit      -0.073737
 4442 Fit      -0.074507
 4443 Fit      -0.075625
 4444 Fit      -0.076981
 4445 Fit      -0.104630
 4446 Fit      -0.098245
 4447 Fit      -0.092447
 4448 Fit      -0.087441
 4449 Fit      -0.083277
 4450 Fit      -0.079946
 4451 Fit      -0.077415
 4452 Fit      -0.075632
 4453 Fit      -0.074532
 4454 Fit      -0.074041
 4455 Fit      -0.074082
 4456 Fit      -0.074579
 4457 Fit      -0.075459
 4458 Fit      -0.113702
 4459 Fit      -0.105689
 4460 Fit      -0.098617
 4461 Fit      -0.092576
 4462 Fit      -0.087530
 4463 Fit      -0.083429
 4464 Fit      -0.080222
 4465 Fit      -0.077856
 4466 Fit      -0.076261
 4467 Fit      -0.075354
 4468 Fit      -0.075048
 4469 Fit      -0.075259
 4470 Fit      -0.087848
 4471 Fit      -0.083899
 4472 Fit      -0.080877
 4473 Fit      -0.078724
 4474 Fit      -0.077351
 4475 Fit      -0.076658
 4476 Fit      -0.077210
 4477 Fit      -0.078433
 4478 Fit      -0.075838
 4479 Fit      -0.075685
 4480 Fit      -0.076249
 4481 Fit      -0.077547
 4482 Fit      -0.079560
 4483 Fit      -0.082208
 4484 Fit      -0.075610
 4485 Fit      -0.075013
 4486 Fit      -0.075030
 4487 Fit      -0.075694
 4488 Fit      -0.077040
 4489 Fit      -0.079090
 4490 Fit      -0.081850
 4491 Fit      -0.085281
 4492 Fit      -0.076192
 4493 Fit      -0.075161
 4494 Fit      -0.074696
 4495 Fit      -0.074839
 4496 Fit      -0.075636
 4497 Fit      -0.077135
 4498 Fit      -0.079390
 4499 Fit      -0.082460
 4500 Fit      -0.086397
 4501 Fit      -0.091225
 4502 Fit      -0.077441
 4503 Fit      -0.076083
 4504 Fit      -0.075220
 4505 Fit      -0.074901
 4506 Fit      -0.075174
 4507 Fit      -0.076091
 4508 Fit      -0.077714
 4509 Fit      -0.080120
 4510 Fit      -0.083404
 4511 Fit      -0.087689
 4512 Fit      -0.093127
 4513 Fit      -0.078651
 4514 Fit      -0.077205
 4515 Fit      -0.076204
 4516 Fit      -0.075717
 4517 Fit      -0.075800
 4518 Fit      -0.076513
 4519 Fit      -0.077923
 4520 Fit      -0.080116
 4521 Fit      -0.083204
 4522 Fit      -0.087343
 4523 Fit      -0.092753
 4524 Fit      -0.099749
 4525 Fit      -0.079294
 4526 Fit      -0.078016
 4527 Fit      -0.077250
 4528 Fit      -0.077080
 4529 Fit      -0.077577
 4530 Fit      -0.078819
 4531 Fit      -0.080907
 4532 Fit      -0.083974
 4533 Fit      -0.088215
 4534 Fit      -0.093916
 4535 Fit      -0.101524
 4536 Fit      -0.080204
 4537 Fit      -0.079329
 4538 Fit      -0.079147
 4539 Fit      -0.079743
 4540 Fit      -0.081217
 4541 Fit      -0.083702
 4542 Fit      -0.087387
 4543 Fit      -0.092559
 4544 Fit      -0.099670
 4545 Fit      -0.109473
 4546 Fit      -0.083235
 4547 Fit      -0.082188
 4548 Fit      -0.081965
 4549 Fit      -0.082651
 4550 Fit      -0.084360
 4551 Fit      -0.087258
 4552 Fit      -0.091591
 4553 Fit      -0.097747
 4554 Fit      -0.106361
 4555 Fit      -0.086100
 4556 Fit      -0.085611
 4557 Fit      -0.086334
 4558 Fit      -0.088408
 4559 Fit      -0.092063
 4560 Fit      -0.097678
 4561 Fit      -0.105875
 4562 Fit      -0.090244
 4563 Fit      -0.090917
 4564 Fit      -0.093383
 4565 Fit      -0.097945
 4566 Fit      -0.105130
 4567 Fit      -0.115805
 4568 Fit      -0.095970
 4569 Fit      -0.097618
 4570 Fit      -0.102062
 4571 Fit      -0.109847
 4572 Fit      -0.104385
 4573 Fit      -0.110665
 4574 Fit      -0.106974
 4575 Fit      -0.102276
 4576 Fit      -0.096390
 4577 Fit      -0.091653
 4578 Fit      -0.101662
 4579 Fit      -0.095932
 4580 Fit      -0.091261
 4581 Fit      -0.087522
 4582 Fit      -0.100864
 4583 Fit      -0.095382
 4584 Fit      -0.090821
 4585 Fit      -0.098770
 4586 Fit      -0.093650
 4587 Fit      -0.102401
 4588 Fit      -0.096850
 4589 Fit      -0.104875
 4590 Fit      -0.099070
 4591 Fit      -0.104868
 4592 Fit      -0.099037
 4593 Fit      -0.104923
 4594 Fit      -0.099159
 4595 Fit      -0.111640
 4596 Fit      -0.105078
 4597 Fit      -0.099476
 4598 Fit      -0.116453
 4599 Fit      -0.109163
 4600 Fit      -0.103026
 4601 Fit      -0.097772
 4602 Fit      -0.088829
 4603 Fit      -0.129988
 4604 Fit      -0.120373
 4605 Fit      -0.112424
 4606 Fit      -0.105794
 4607 Fit      -0.100202
 4608 Fit      -0.089333
 4609 Fit      -0.092733
 4610 Fit      -0.097246
 4611 Fit      -0.161727
 4612 Fit      -0.147076
 4613 Fit      -0.134777
 4614 Fit      -0.124514
 4615 Fit      -0.115981
 4616 Fit      -0.108882
 4617 Fit      -0.102955
 4618 Fit      -0.097991
 4619 Fit      -0.090052
 4620 Fit      -0.093105
 4621 Fit      -0.097189
 4622 Fit      -0.102648
 4623 Fit      -0.109929
 4624 Fit      -0.165316
 4625 Fit      -0.150693
 4626 Fit      -0.138104
 4627 Fit      -0.127415
 4628 Fit      -0.118445
 4629 Fit      -0.110978
 4630 Fit      -0.104797
 4631 Fit      -0.099712
 4632 Fit      -0.095590
 4633 Fit      -0.090123
 4634 Fit      -0.092300
 4635 Fit      -0.095409
 4636 Fit      -0.099652
 4637 Fit      -0.140692
 4638 Fit      -0.130069
 4639 Fit      -0.120914
 4640 Fit      -0.113206
 4641 Fit      -0.106834
 4642 Fit      -0.101667
 4643 Fit      -0.097595
 4644 Fit      -0.094564
 4645 Fit      -0.092566
 4646 Fit      -0.091605
 4647 Fit      -0.091662
 4648 Fit      -0.092701
 4649 Fit      -0.094718
 4650 Fit      -0.120958
 4651 Fit      -0.113034
 4652 Fit      -0.106594
 4653 Fit      -0.101607
 4654 Fit      -0.098019
 4655 Fit      -0.095807
 4656 Fit      -0.094957
 4657 Fit      -0.095443
 4658 Fit      -0.082957
 4659 Fit      -0.081488
 4660 Fit      -0.085678
 4661 Fit      -0.082100
 4662 Fit      -0.079811
 4663 Fit      -0.078768
 4664 Fit      -0.078949
 4665 Fit      -0.089177
 4666 Fit      -0.084394
 4667 Fit      -0.080799
 4668 Fit      -0.078323
 4669 Fit      -0.076905
 4670 Fit      -0.076504
 4671 Fit      -0.077103
 4672 Fit      -0.093558
 4673 Fit      -0.087897
 4674 Fit      -0.083362
 4675 Fit      -0.079866
 4676 Fit      -0.077331
 4677 Fit      -0.075696
 4678 Fit      -0.074915
 4679 Fit      -0.074960
 4680 Fit      -0.075820
 4681 Fit      -0.077501
 4682 Fit      -0.089725
 4683 Fit      -0.084700
 4684 Fit      -0.080725
 4685 Fit      -0.077706
 4686 Fit      -0.075569
 4687 Fit      -0.074259
 4688 Fit      -0.073738
 4689 Fit      -0.073980
 4690 Fit      -0.074974
 4691 Fit      -0.076717
 4692 Fit      -0.091881
 4693 Fit      -0.086521
 4694 Fit      -0.082190
 4695 Fit      -0.078790
 4696 Fit      -0.076243
 4697 Fit      -0.074488
 4698 Fit      -0.073481
 4699 Fit      -0.073192
 4700 Fit      -0.073600
 4701 Fit      -0.074698
 4702 Fit      -0.076480
 4703 Fit      -0.078937
 4704 Fit      -0.093059
 4705 Fit      -0.087597
 4706 Fit      -0.083145
 4707 Fit      -0.079605
 4708 Fit      -0.076899
 4709 Fit      -0.074967
 4710 Fit      -0.073763
 4711 Fit      -0.073256
 4712 Fit      -0.073426
 4713 Fit      -0.074264
 4714 Fit      -0.075768
 4715 Fit      -0.077940
 4716 Fit      -0.080776
 4717 Fit      -0.092098
 4718 Fit      -0.086820
 4719 Fit      -0.082560
 4720 Fit      -0.079223
 4721 Fit      -0.076737
 4722 Fit      -0.075045
 4723 Fit      -0.074106
 4724 Fit      -0.073895
 4725 Fit      -0.074398
 4726 Fit      -0.075613
 4727 Fit      -0.077549
 4728 Fit      -0.080226
 4729 Fit      -0.083675
 4730 Fit      -0.096326
 4731 Fit      -0.090310
 4732 Fit      -0.085431
 4733 Fit      -0.081586
 4734 Fit      -0.078690
 4735 Fit      -0.076678
 4736 Fit      -0.075505
 4737 Fit      -0.075141
 4738 Fit      -0.075570
 4739 Fit      -0.076794
 4740 Fit      -0.078828
 4741 Fit      -0.081714
 4742 Fit      -0.085525
 4743 Fit      -0.094518
 4744 Fit      -0.089054
 4745 Fit      -0.084704
 4746 Fit      -0.081385
 4747 Fit      -0.079033
 4748 Fit      -0.077597
 4749 Fit      -0.077046
 4750 Fit      -0.077364
 4751 Fit      -0.078553
 4752 Fit      -0.080635
 4753 Fit      -0.083660
 4754 Fit      -0.091041
 4755 Fit      -0.086468
 4756 Fit      -0.083101
 4757 Fit      -0.080879
 4758 Fit      -0.079759
 4759 Fit      -0.079718
 4760 Fit      -0.080751
 4761 Fit      -0.082881
 4762 Fit      -0.086162
 4763 Fit      -0.093472
 4764 Fit      -0.088755
 4765 Fit      -0.085436
 4766 Fit      -0.083484
 4767 Fit      -0.082873
 4768 Fit      -0.083594
 4769 Fit      -0.085657
 4770 Fit      -0.090557
 4771 Fit      -0.087806
 4772 Fit      -0.086884
 4773 Fit      -0.087793
 4774 Fit      -0.112584
 4775 Fit      -0.122170
 4776 Fit      -0.159091
 4777 Fit      -0.100720
 4778 Fit      -0.105331
 4779 Fit      -0.111645
 4780 Fit      -0.119786
 4781 Fit      -0.157818
 4782 Fit      -0.145307
 4783 Fit      -0.134063
 4784 Fit      -0.096394
 4785 Fit      -0.098168
 4786 Fit      -0.101250
 4787 Fit      -0.105794
 4788 Fit      -0.111872
 4789 Fit      -0.119280
 4790 Fit      -0.127302
 4791 Fit      -0.152659
 4792 Fit      -0.143543
 4793 Fit      -0.133728
 4794 Fit      -0.124550
 4795 Fit      -0.116596
 4796 Fit      -0.110053
 4797 Fit      -0.104927
 4798 Fit      -0.101169
 4799 Fit      -0.098736
 4800 Fit      -0.097604
 4801 Fit      -0.097778
 4802 Fit      -0.099298
 4803 Fit      -0.102239
 4804 Fit      -0.106643
 4805 Fit      -0.112384
 4806 Fit      -0.119014
 4807 Fit      -0.125776
 4808 Fit      -0.132152
 4809 Fit      -0.138673
 4810 Fit      -0.146361
 4811 Fit      -0.138724
 4812 Fit      -0.131664
 4813 Fit      -0.123531
 4814 Fit      -0.115874
 4815 Fit      -0.109476
 4816 Fit      -0.104648
 4817 Fit      -0.101489
 4818 Fit      -0.100028
 4819 Fit      -0.100287
 4820 Fit      -0.102290
 4821 Fit      -0.106007
 4822 Fit      -0.111213
 4823 Fit      -0.117366
 4824 Fit      -0.123808
 4825 Fit      -0.130279
 4826 Fit      -0.136656
 4827 Fit      -0.141541
 4828 Fit      -0.142519
 4829 Fit      -0.127913
 4830 Fit      -0.121721
 4831 Fit      -0.114407
 4832 Fit      -0.108254
 4833 Fit      -0.104378
 4834 Fit      -0.103203
 4835 Fit      -0.104820
 4836 Fit      -0.108989
 4837 Fit      -0.114934
 4838 Fit      -0.121460
 4839 Fit      -0.127232
 4840 Fit      -0.130068
 4841 Fit      -0.119573
 4842 Fit      -0.113487
 4843 Fit      -0.108223
 4844 Fit      -0.108374
 4845 Fit      -0.113622
 4846 Fit      -0.119464
 4847 Fit      -0.113191
 4848 Fit      -0.134160
 4849 Fit      -0.122347
 4850 Fit      -0.137137
 4851 Fit      -0.124286
 4852 Fit      -0.114621
 4853 Fit      -0.136382
 4854 Fit      -0.123621
 4855 Fit      -0.114307
 4856 Fit      -0.107639
 4857 Fit      -0.132338
 4858 Fit      -0.120726
 4859 Fit      -0.112307
 4860 Fit      -0.106235
 4861 Fit      -0.141874
 4862 Fit      -0.128098
 4863 Fit      -0.118036
 4864 Fit      -0.110636
 4865 Fit      -0.105197
 4866 Fit      -0.147056
 4867 Fit      -0.131971
 4868 Fit      -0.120989
 4869 Fit      -0.112895
 4870 Fit      -0.106904
 4871 Fit      -0.151275
 4872 Fit      -0.135631
 4873 Fit      -0.124134
 4874 Fit      -0.115571
 4875 Fit      -0.109156
 4876 Fit      -0.152199
 4877 Fit      -0.136999
 4878 Fit      -0.125651
 4879 Fit      -0.117093
 4880 Fit      -0.110615
 4881 Fit      -0.148557
 4882 Fit      -0.134649
 4883 Fit      -0.124132
 4884 Fit      -0.116157
 4885 Fit      -0.110117
 4886 Fit      -0.159505
 4887 Fit      -0.143409
 4888 Fit      -0.131076
 4889 Fit      -0.121672
 4890 Fit      -0.114547
 4891 Fit      -0.170411
 4892 Fit      -0.152987
 4893 Fit      -0.139150
 4894 Fit      -0.128374
 4895 Fit      -0.120108
 4896 Fit      -0.178420
 4897 Fit      -0.159996
 4898 Fit      -0.144919
 4899 Fit      -0.133001
 4900 Fit      -0.167343
 4901 Fit      -0.151410
 4902 Fit      -0.081244
 4903 Fit      -0.084323
 4904 Fit      -0.083398
 4905 Fit      -0.080666
 4906 Fit      -0.079024
 4907 Fit      -0.079722
 4908 Fit      -0.082241
 4909 Fit      -0.083190
 4910 Fit      -0.080505
 4911 Fit      -0.078570
 4912 Fit      -0.077593
 4913 Fit      -0.077699
 4914 Fit      -0.078878
 4915 Fit      -0.080964
 4916 Fit      -0.083659
 4917 Fit      -0.086462
 4918 Fit      -0.078934
 4919 Fit      -0.077626
 4920 Fit      -0.076909
 4921 Fit      -0.076861
 4922 Fit      -0.077490
 4923 Fit      -0.078753
 4924 Fit      -0.080573
 4925 Fit      -0.082859
 4926 Fit      -0.085519
 4927 Fit      -0.088457
 4928 Fit      -0.078071
 4929 Fit      -0.077199
 4930 Fit      -0.076839
 4931 Fit      -0.077018
 4932 Fit      -0.077717
 4933 Fit      -0.078898
 4934 Fit      -0.080512
 4935 Fit      -0.082502
 4936 Fit      -0.084812
 4937 Fit      -0.087407
 4938 Fit      -0.078787
 4939 Fit      -0.077946
 4940 Fit      -0.077606
 4941 Fit      -0.077762
 4942 Fit      -0.078380
 4943 Fit      -0.079424
 4944 Fit      -0.080855
 4945 Fit      -0.082626
 4946 Fit      -0.084690
 4947 Fit      -0.086991
 4948 Fit      -0.089487
 4949 Fit      -0.079406
 4950 Fit      -0.079112
 4951 Fit      -0.079289
 4952 Fit      -0.079885
 4953 Fit      -0.080859
 4954 Fit      -0.082178
 4955 Fit      -0.083808
 4956 Fit      -0.085709
 4957 Fit      -0.087831
 4958 Fit      -0.090119
 4959 Fit      -0.092506
 4960 Fit      -0.081601
 4961 Fit      -0.081393
 4962 Fit      -0.081686
 4963 Fit      -0.082400
 4964 Fit      -0.083488
 4965 Fit      -0.084917
 4966 Fit      -0.086656
 4967 Fit      -0.088668
 4968 Fit      -0.090902
 4969 Fit      -0.093295
 4970 Fit      -0.095764
 4971 Fit      -0.098194
 4972 Fit      -0.084530
 4973 Fit      -0.085016
 4974 Fit      -0.085905
 4975 Fit      -0.087154
 4976 Fit      -0.088736
 4977 Fit      -0.090627
 4978 Fit      -0.092794
 4979 Fit      -0.095191
 4980 Fit      -0.097756
 4981 Fit      -0.100402
 4982 Fit      -0.103009
 4983 Fit      -0.089039
 4984 Fit      -0.090043
 4985 Fit      -0.091409
 4986 Fit      -0.093120
 4987 Fit      -0.095165
 4988 Fit      -0.097522
 4989 Fit      -0.100155
 4990 Fit      -0.103008
 4991 Fit      -0.105998
 4992 Fit      -0.109010
 4993 Fit      -0.095535
 4994 Fit      -0.097244
 4995 Fit      -0.099334
 4996 Fit      -0.101816
 4997 Fit      -0.104687
 4998 Fit      -0.107916
 4999 Fit      -0.111443
 5000 Fit      -0.144517
 5001 Fit      -0.151554
 5002 Fit      -0.141320
 5003 Fit      -0.147366
 5004 Fit      -0.141356
 5005 Fit      -0.149077
 5006 Fit      -0.136919
 5007 Fit      -0.142232
 5008 Fit      -0.133852
 5009 Fit      -0.136551
 5010 Fit      -0.142419
 5011 Fit      -0.149444
 5012 Fit      -0.140888
 5013 Fit      -0.136154
 5014 Fit      -0.133576
 5015 Fit      -0.135828
 5016 Fit      -0.141631
 5017 Fit      -0.148840
 5018 Fit      -0.148482
 5019 Fit      -0.140832
 5020 Fit      -0.136098
 5021 Fit      -0.136005
 5022 Fit      -0.141118
 5023 Fit      -0.140870
 -----------------------------------------------------------------
 Leave Link  602 at Tue Dec 13 19:22:23 2022, MaxMem=   134217728 cpu:         0.2

 Test job not archived.
 1\1\NSC-N74\SP\RHF\6-31G(d)\C5H9O3(1-)\X_GABOA\13-Dec-2022\0\\#HF/6-31
 G* scrf=smd SCF=tight Test Pop=MK iop(6/33=2) iop(6/42=6) # iop(6/50=1
 )\\calc RESP charges\\-1,1\O,0,2.286461,0.851499,0.428024\C,0,1.456201
 ,0.031324,0.009077\O,0,1.389996,-0.376297,-1.172714\C,0,0.476173,-0.57
 24,1.014246\C,0,-0.975909,-0.742689,0.545123\O,0,-1.040348,-1.478131,-
 0.664597\C,0,-1.779173,0.557935,0.447227\H,0,0.866689,-1.559398,1.2537
 94\H,0,0.493342,0.009267,1.927725\H,0,-1.823343,1.001322,1.439055\H,0,
 -2.797946,0.28211,0.186778\C,0,-1.277427,1.599654,-0.552475\H,0,-1.980
 285,2.425431,-0.611347\H,0,-1.177793,1.181585,-1.548628\H,0,-0.317849,
 2.013489,-0.261407\H,0,-1.474329,-1.353742,1.289191\H,0,-0.276548,-1.2
 19572,-1.180058\\Version=ES64L-G09RevE.01\State=1-A\HF=-419.3137168\RM
 SD=9.553e-09\Dipole=-3.0871168,-0.0679058,1.5069264\Quadrupole=-8.6169
 947,3.2844597,5.332535,-7.3360187,-0.0596582,-3.493132\PG=C01 [X(C5H9O
 3)]\\@


 TOM, TOM, THE BURGLAR'S SON
 STOLE A MACHINE AND AWAY HE RUN
 THE JOB WAS NEAT, BUT TOM GOT BEAT
 BY THE TIME HE GOT HOME IT WAS OBSOLETE.
 Job cpu time:       0 days  0 hours  0 minutes  8.6 seconds.
 File lengths (MBytes):  RWF=     33 Int=      0 D2E=      0 Chk=      8 Scr=      1
 Normal termination of Gaussian 09 at Tue Dec 13 19:22:24 2022.
