 Entering Gaussian System, Link 0=/software/sse/easybuild/prefix/software/Gaussian/09.E.01-avx-nsc1-bdist/g09/g09.orig
 Input=nah.wrap
 Output=nah.log
 Initial command:
 /software/sse/easybuild/prefix/software/Gaussian/09.E.01-avx-nsc1-bdist/g09/l1.exe "/scratch/local/Gau-106203.inp" -scrdir="/scratch/local/"
 Entering Link 1 = /software/sse/easybuild/prefix/software/Gaussian/09.E.01-avx-nsc1-bdist/g09/l1.exe PID=    106204.
  
 Copyright (c) 1988,1990,1992,1993,1995,1998,2003,2009,2015,
            Gaussian, Inc.  All Rights Reserved.
  
 This is part of the Gaussian(R) 09 program.  It is based on
 the Gaussian(R) 03 system (copyright 2003, Gaussian, Inc.),
 the Gaussian(R) 98 system (copyright 1998, Gaussian, Inc.),
 the Gaussian(R) 94 system (copyright 1995, Gaussian, Inc.),
 the Gaussian 92(TM) system (copyright 1992, Gaussian, Inc.),
 the Gaussian 90(TM) system (copyright 1990, Gaussian, Inc.),
 the Gaussian 88(TM) system (copyright 1988, Gaussian, Inc.),
 the Gaussian 86(TM) system (copyright 1986, Carnegie Mellon
 University), and the Gaussian 82(TM) system (copyright 1983,
 Carnegie Mellon University). Gaussian is a federally registered
 trademark of Gaussian, Inc.
  
 This software contains proprietary and confidential information,
 including trade secrets, belonging to Gaussian, Inc.
  
 This software is provided under written license and may be
 used, copied, transmitted, or stored only in accord with that
 written license.
  
 The following legend is applicable only to US Government
 contracts under FAR:
  
                    RESTRICTED RIGHTS LEGEND
  
 Use, reproduction and disclosure by the US Government is
 subject to restrictions as set forth in subparagraphs (a)
 and (c) of the Commercial Computer Software - Restricted
 Rights clause in FAR 52.227-19.
  
 Gaussian, Inc.
 340 Quinnipiac St., Bldg. 40, Wallingford CT 06492
  
  
 ---------------------------------------------------------------
 Warning -- This program may not be used in any manner that
 competes with the business of Gaussian, Inc. or will provide
 assistance to any competitor of Gaussian, Inc.  The licensee
 of this program is prohibited from giving any competitor of
 Gaussian, Inc. access to this program.  By using this program,
 the user acknowledges that Gaussian, Inc. is engaged in the
 business of creating and licensing software in the field of
 computational chemistry and represents and warrants to the
 licensee that it is not a competitor of Gaussian, Inc. and that
 it will not use this program in any manner prohibited above.
 ---------------------------------------------------------------
  

 Cite this work as:
 Gaussian 09, Revision E.01,
 M. J. Frisch, G. W. Trucks, H. B. Schlegel, G. E. Scuseria, 
 M. A. Robb, J. R. Cheeseman, G. Scalmani, V. Barone, B. Mennucci, 
 G. A. Petersson, H. Nakatsuji, M. Caricato, X. Li, H. P. Hratchian, 
 A. F. Izmaylov, J. Bloino, G. Zheng, J. L. Sonnenberg, M. Hada, 
 M. Ehara, K. Toyota, R. Fukuda, J. Hasegawa, M. Ishida, T. Nakajima, 
 Y. Honda, O. Kitao, H. Nakai, T. Vreven, J. A. Montgomery, Jr., 
 J. E. Peralta, F. Ogliaro, M. Bearpark, J. J. Heyd, E. Brothers, 
 K. N. Kudin, V. N. Staroverov, T. Keith, R. Kobayashi, J. Normand, 
 K. Raghavachari, A. Rendell, J. C. Burant, S. S. Iyengar, J. Tomasi, 
 M. Cossi, N. Rega, J. M. Millam, M. Klene, J. E. Knox, J. B. Cross, 
 V. Bakken, C. Adamo, J. Jaramillo, R. Gomperts, R. E. Stratmann, 
 O. Yazyev, A. J. Austin, R. Cammi, C. Pomelli, J. W. Ochterski, 
 R. L. Martin, K. Morokuma, V. G. Zakrzewski, G. A. Voth, 
 P. Salvador, J. J. Dannenberg, S. Dapprich, A. D. Daniels, 
 O. Farkas, J. B. Foresman, J. V. Ortiz, J. Cioslowski, 
 and D. J. Fox, Gaussian, Inc., Wallingford CT, 2013.
 
 ******************************************
 Gaussian 09:  ES64L-G09RevE.01 30-Nov-2015
                12-Dec-2022 
 ******************************************
 %nproc=16
 Will use up to   16 processors via shared memory.
 %chk=nah
 -----------------------
 #HF/6-31G* scrf=smd opt
 -----------------------
 1/14=-1,18=20,19=15,38=1/1,3;
 2/9=110,12=2,17=6,18=5,40=1/2;
 3/5=1,6=6,7=1,11=9,16=1,25=1,30=1,70=32201,71=1,72=1/1,2,3;
 4//1;
 5/5=2,38=5/2;
 6/7=2,8=2,9=2,10=2,28=1/1;
 7//1,2,3,16;
 1/14=-1,18=20,19=15/3(2);
 2/9=110/2;
 99//99;
 2/9=110/2;
 3/5=1,6=6,7=1,11=9,16=1,25=1,30=1,70=32205,71=1/1,2,3;
 4/5=5,16=3,69=1/1;
 5/5=2,38=5/2;
 7//1,2,3,16;
 1/14=-1,18=20,19=15/3(-5);
 2/9=110/2;
 6/7=2,8=2,9=2,10=2,19=2,28=1/1;
 99/9=1/99;
 ---------------------
 remark line goes here
 ---------------------
 Symbolic Z-matrix:
 Charge = -2 Multiplicity = 1
 C                    -20.709   -4.182    -26.746 
 H                    -21.576   -3.539    -26.707 
 C                    -20.548   -5.025    -27.821 
 H                    -21.343   -5.139    -28.543 
 C                    -19.619   -6.029    -27.754 
 H                    -20.088   -6.843    -27.891 
 H                    -19.024   -5.916    -28.485 
 C                    -18.841   -6.204    -26.601 
 C                    -17.841   -7.336    -26.554 
 O                    -17.947   -8.23     -27.395 
 N                    -16.831   -7.265    -25.689 
 H                    -16.973   -7.538    -24.727 
 H                    -15.966   -6.821    -25.964 
 C                    -19.026   -5.332    -25.534 
 H                    -18.183   -5.159    -24.882 
 N                    -19.961   -4.32     -25.624 
 C                    -20.072   -3.304    -24.548 
 H                    -20.921   -2.661    -24.781 
 C                    -20.372   -3.883    -23.17 
 H                    -19.63    -4.681    -23.196 
 O                    -21.745   -4.219    -23.093 
 H                    -21.819   -5.15     -22.947 
 C                    -19.93    -2.711    -22.29 
 H                    -19.651   -3.047    -21.291 
 O                    -20.949   -1.723    -22.213 
 H                    -20.711   -1.002    -22.776 
 C                    -18.718   -2.162    -23.056 
 H                    -18.802   -1.078    -23.13 
 O                    -18.809   -2.709    -24.385 
 C                    -17.366   -2.515    -22.5 
 H                    -16.577   -2.22     -23.191 
 H                    -17.19    -2.012    -21.549 
 O                    -17.331   -3.954    -22.312 
 P                    -15.951   -4.729    -22.462 
 O                    -14.801   -3.796    -22.653 
 O                    -16.208   -5.851    -23.42 
 O                    -15.823   -5.401    -21.018 
 P                    -14.77    -5.389    -19.838 
 O                    -15.32    -6.288    -18.782 
 O                    -13.365   -5.626    -20.327 
 O                    -14.833   -3.885    -19.318 
 C                    -16.019   -3.371    -18.654 
 H                    -16.606   -4.203    -18.265 
 H                    -16.637   -2.835    -19.375 
 C                    -15.587   -2.454    -17.534 
 H                    -15.035   -1.613    -17.953 
 O                    -16.787   -1.938    -16.909 
 C                    -14.757   -3.093    -16.407 
 H                    -14.532   -4.122    -16.685 
 O                    -13.556   -2.388    -16.098 
 H                    -13.523   -1.605    -16.626 
 C                    -15.752   -3.122    -15.241 
 H                    -16.414   -3.986    -15.302 
 O                    -15.123   -3.068    -13.978 
 H                    -14.32    -2.577    -14.064 
 C                    -16.545   -1.86     -15.531 
 H                    -15.917   -1.036    -15.193 
 N                    -17.813   -1.771    -14.81 
 C                    -18.742   -2.775    -14.637 
 H                    -18.507   -3.809    -14.844 
 N                    -19.756   -2.431    -13.869 
 C                    -19.486   -1.108    -13.524 
 C                    -20.18    -0.177    -12.722 
 N                    -21.302   -0.445    -12.041 
 H                    -21.246   -0.809    -11.101 
 H                    -22.144    0.041    -12.314 
 N                    -19.619    1.05     -12.591 
 C                    -18.452    1.302    -13.209 
 H                    -18.255    2.354    -13.356 
 N                    -17.698    0.502    -13.959 
 C                    -18.283   -0.699    -14.091 
 

 GradGradGradGradGradGradGradGradGradGradGradGradGradGradGradGradGradGrad
 Berny optimization.
 Initialization pass.
                           ----------------------------
                           !    Initial Parameters    !
                           ! (Angstroms and Degrees)  !
 --------------------------                            --------------------------
 ! Name  Definition              Value          Derivative Info.                !
 --------------------------------------------------------------------------------
 ! R1    R(1,2)                  1.0801         estimate D2E/DX2                !
 ! R2    R(1,3)                  1.3756         estimate D2E/DX2                !
 ! R3    R(1,16)                 1.3555         estimate D2E/DX2                !
 ! R4    R(3,4)                  1.08           estimate D2E/DX2                !
 ! R5    R(3,5)                  1.3695         estimate D2E/DX2                !
 ! R6    R(5,6)                  0.9494         estimate D2E/DX2                !
 ! R7    R(5,7)                  0.9493         estimate D2E/DX2                !
 ! R8    R(5,8)                  1.4019         estimate D2E/DX2                !
 ! R9    R(8,9)                  1.5112         estimate D2E/DX2                !
 ! R10   R(8,14)                 1.3904         estimate D2E/DX2                !
 ! R11   R(9,10)                 1.232          estimate D2E/DX2                !
 ! R12   R(9,11)                 1.3317         estimate D2E/DX2                !
 ! R13   R(11,12)                1.01           estimate D2E/DX2                !
 ! R14   R(11,13)                1.0104         estimate D2E/DX2                !
 ! R15   R(14,15)                1.0797         estimate D2E/DX2                !
 ! R16   R(14,16)                1.3807         estimate D2E/DX2                !
 ! R17   R(16,17)                1.484          estimate D2E/DX2                !
 ! R18   R(17,18)                1.0902         estimate D2E/DX2                !
 ! R19   R(17,19)                1.5245         estimate D2E/DX2                !
 ! R20   R(17,29)                1.4056         estimate D2E/DX2                !
 ! R21   R(19,20)                1.09           estimate D2E/DX2                !
 ! R22   R(19,21)                1.4156         estimate D2E/DX2                !
 ! R23   R(19,23)                1.5308         estimate D2E/DX2                !
 ! R24   R(21,22)                0.9453         estimate D2E/DX2                !
 ! R25   R(23,24)                1.0903         estimate D2E/DX2                !
 ! R26   R(23,25)                1.4214         estimate D2E/DX2                !
 ! R27   R(23,27)                1.5353         estimate D2E/DX2                !
 ! R28   R(25,26)                0.9452         estimate D2E/DX2                !
 ! R29   R(27,28)                1.0898         estimate D2E/DX2                !
 ! R30   R(27,29)                1.44           estimate D2E/DX2                !
 ! R31   R(27,30)                1.5039         estimate D2E/DX2                !
 ! R32   R(30,31)                1.0895         estimate D2E/DX2                !
 ! R33   R(30,32)                1.0901         estimate D2E/DX2                !
 ! R34   R(30,33)                1.4517         estimate D2E/DX2                !
 ! R35   R(33,34)                1.5898         estimate D2E/DX2                !
 ! R36   R(34,35)                1.4931         estimate D2E/DX2                !
 ! R37   R(34,36)                1.4976         estimate D2E/DX2                !
 ! R38   R(34,37)                1.5978         estimate D2E/DX2                !
 ! R39   R(37,38)                1.5816         estimate D2E/DX2                !
 ! R40   R(38,39)                1.4919         estimate D2E/DX2                !
 ! R41   R(38,40)                1.5064         estimate D2E/DX2                !
 ! R42   R(38,41)                1.5926         estimate D2E/DX2                !
 ! R43   R(41,42)                1.4532         estimate D2E/DX2                !
 ! R44   R(42,43)                1.09           estimate D2E/DX2                !
 ! R45   R(42,44)                1.0904         estimate D2E/DX2                !
 ! R46   R(42,45)                1.5106         estimate D2E/DX2                !
 ! R47   R(45,46)                1.0897         estimate D2E/DX2                !
 ! R48   R(45,47)                1.4481         estimate D2E/DX2                !
 ! R49   R(45,48)                1.5386         estimate D2E/DX2                !
 ! R50   R(47,56)                1.4013         estimate D2E/DX2                !
 ! R51   R(48,49)                1.0894         estimate D2E/DX2                !
 ! R52   R(48,50)                1.4265         estimate D2E/DX2                !
 ! R53   R(48,52)                1.5331         estimate D2E/DX2                !
 ! R54   R(50,51)                0.945          estimate D2E/DX2                !
 ! R55   R(52,53)                1.0902         estimate D2E/DX2                !
 ! R56   R(52,54)                1.412          estimate D2E/DX2                !
 ! R57   R(52,56)                1.5184         estimate D2E/DX2                !
 ! R58   R(54,55)                0.9451         estimate D2E/DX2                !
 ! R59   R(56,57)                1.0898         estimate D2E/DX2                !
 ! R60   R(56,58)                1.4614         estimate D2E/DX2                !
 ! R61   R(58,59)                1.3788         estimate D2E/DX2                !
 ! R62   R(58,71)                1.3737         estimate D2E/DX2                !
 ! R63   R(59,60)                1.0804         estimate D2E/DX2                !
 ! R64   R(59,61)                1.3177         estimate D2E/DX2                !
 ! R65   R(61,62)                1.3936         estimate D2E/DX2                !
 ! R66   R(62,63)                1.4112         estimate D2E/DX2                !
 ! R67   R(62,71)                1.3914         estimate D2E/DX2                !
 ! R68   R(63,64)                1.3396         estimate D2E/DX2                !
 ! R69   R(63,67)                1.3555         estimate D2E/DX2                !
 ! R70   R(64,65)                1.0096         estimate D2E/DX2                !
 ! R71   R(64,66)                1.0098         estimate D2E/DX2                !
 ! R72   R(67,68)                1.3444         estimate D2E/DX2                !
 ! R73   R(68,69)                1.0803         estimate D2E/DX2                !
 ! R74   R(68,70)                1.3308         estimate D2E/DX2                !
 ! R75   R(70,71)                1.3424         estimate D2E/DX2                !
 ! A1    A(2,1,3)              119.1429         estimate D2E/DX2                !
 ! A2    A(2,1,16)             118.2719         estimate D2E/DX2                !
 ! A3    A(3,1,16)             121.3247         estimate D2E/DX2                !
 ! A4    A(1,3,4)              120.0659         estimate D2E/DX2                !
 ! A5    A(1,3,5)              119.3695         estimate D2E/DX2                !
 ! A6    A(4,3,5)              117.0443         estimate D2E/DX2                !
 ! A7    A(3,5,6)              106.6427         estimate D2E/DX2                !
 ! A8    A(3,5,7)              107.4718         estimate D2E/DX2                !
 ! A9    A(3,5,8)              120.5446         estimate D2E/DX2                !
 ! A10   A(6,5,7)              107.4921         estimate D2E/DX2                !
 ! A11   A(6,5,8)              106.6072         estimate D2E/DX2                !
 ! A12   A(7,5,8)              107.4786         estimate D2E/DX2                !
 ! A13   A(5,8,9)              119.0996         estimate D2E/DX2                !
 ! A14   A(5,8,14)             118.6229         estimate D2E/DX2                !
 ! A15   A(9,8,14)             122.2756         estimate D2E/DX2                !
 ! A16   A(8,9,10)             117.7374         estimate D2E/DX2                !
 ! A17   A(8,9,11)             118.8262         estimate D2E/DX2                !
 ! A18   A(10,9,11)            123.1863         estimate D2E/DX2                !
 ! A19   A(9,11,12)            119.8436         estimate D2E/DX2                !
 ! A20   A(9,11,13)            119.7304         estimate D2E/DX2                !
 ! A21   A(12,11,13)           119.8906         estimate D2E/DX2                !
 ! A22   A(8,14,15)            117.39           estimate D2E/DX2                !
 ! A23   A(8,14,16)            119.9842         estimate D2E/DX2                !
 ! A24   A(15,14,16)           116.7855         estimate D2E/DX2                !
 ! A25   A(1,16,14)            120.1486         estimate D2E/DX2                !
 ! A26   A(1,16,17)            119.2862         estimate D2E/DX2                !
 ! A27   A(14,16,17)           120.3428         estimate D2E/DX2                !
 ! A28   A(16,17,18)           107.8832         estimate D2E/DX2                !
 ! A29   A(16,17,19)           114.2096         estimate D2E/DX2                !
 ! A30   A(16,17,29)           107.8588         estimate D2E/DX2                !
 ! A31   A(18,17,19)           105.3039         estimate D2E/DX2                !
 ! A32   A(18,17,29)           118.3503         estimate D2E/DX2                !
 ! A33   A(19,17,29)           103.46           estimate D2E/DX2                !
 ! A34   A(17,19,20)            97.0385         estimate D2E/DX2                !
 ! A35   A(17,19,21)           109.2793         estimate D2E/DX2                !
 ! A36   A(17,19,23)            99.9054         estimate D2E/DX2                !
 ! A37   A(20,19,21)           119.195          estimate D2E/DX2                !
 ! A38   A(20,19,23)           112.1901         estimate D2E/DX2                !
 ! A39   A(21,19,23)           115.4992         estimate D2E/DX2                !
 ! A40   A(19,21,22)           108.5478         estimate D2E/DX2                !
 ! A41   A(19,23,24)           111.3874         estimate D2E/DX2                !
 ! A42   A(19,23,25)           110.8737         estimate D2E/DX2                !
 ! A43   A(19,23,27)           102.4094         estimate D2E/DX2                !
 ! A44   A(24,23,25)           110.3662         estimate D2E/DX2                !
 ! A45   A(24,23,27)           111.4286         estimate D2E/DX2                !
 ! A46   A(25,23,27)           110.1457         estimate D2E/DX2                !
 ! A47   A(23,25,26)           108.507          estimate D2E/DX2                !
 ! A48   A(23,27,28)           109.1915         estimate D2E/DX2                !
 ! A49   A(23,27,29)           105.9466         estimate D2E/DX2                !
 ! A50   A(23,27,30)           116.1874         estimate D2E/DX2                !
 ! A51   A(28,27,29)           108.0773         estimate D2E/DX2                !
 ! A52   A(28,27,30)           109.1405         estimate D2E/DX2                !
 ! A53   A(29,27,30)           107.99           estimate D2E/DX2                !
 ! A54   A(17,29,27)           108.9409         estimate D2E/DX2                !
 ! A55   A(27,30,31)           110.6713         estimate D2E/DX2                !
 ! A56   A(27,30,32)           111.0611         estimate D2E/DX2                !
 ! A57   A(27,30,33)           107.592          estimate D2E/DX2                !
 ! A58   A(31,30,32)           108.1457         estimate D2E/DX2                !
 ! A59   A(31,30,33)           109.456          estimate D2E/DX2                !
 ! A60   A(32,30,33)           109.9085         estimate D2E/DX2                !
 ! A61   A(30,33,34)           119.468          estimate D2E/DX2                !
 ! A62   A(33,34,35)           112.0866         estimate D2E/DX2                !
 ! A63   A(33,34,36)           106.0585         estimate D2E/DX2                !
 ! A64   A(33,34,37)           100.9111         estimate D2E/DX2                !
 ! A65   A(35,34,36)           121.2315         estimate D2E/DX2                !
 ! A66   A(35,34,37)           108.4634         estimate D2E/DX2                !
 ! A67   A(36,34,37)           106.0672         estimate D2E/DX2                !
 ! A68   A(34,37,38)           136.4193         estimate D2E/DX2                !
 ! A69   A(37,38,39)           106.1454         estimate D2E/DX2                !
 ! A70   A(37,38,40)           112.1842         estimate D2E/DX2                !
 ! A71   A(37,38,41)           102.9697         estimate D2E/DX2                !
 ! A72   A(39,38,40)           118.6065         estimate D2E/DX2                !
 ! A73   A(39,38,41)           108.8665         estimate D2E/DX2                !
 ! A74   A(40,38,41)           106.9452         estimate D2E/DX2                !
 ! A75   A(38,41,42)           121.0316         estimate D2E/DX2                !
 ! A76   A(41,42,43)           109.4269         estimate D2E/DX2                !
 ! A77   A(41,42,44)           109.5292         estimate D2E/DX2                !
 ! A78   A(41,42,45)           108.6689         estimate D2E/DX2                !
 ! A79   A(43,42,44)           107.8157         estimate D2E/DX2                !
 ! A80   A(43,42,45)           110.6564         estimate D2E/DX2                !
 ! A81   A(44,42,45)           110.7273         estimate D2E/DX2                !
 ! A82   A(42,45,46)           109.1635         estimate D2E/DX2                !
 ! A83   A(42,45,47)           107.4175         estimate D2E/DX2                !
 ! A84   A(42,45,48)           116.4385         estimate D2E/DX2                !
 ! A85   A(46,45,47)           108.1025         estimate D2E/DX2                !
 ! A86   A(46,45,48)           109.2014         estimate D2E/DX2                !
 ! A87   A(47,45,48)           106.1934         estimate D2E/DX2                !
 ! A88   A(45,47,56)           107.5276         estimate D2E/DX2                !
 ! A89   A(45,48,49)           108.4685         estimate D2E/DX2                !
 ! A90   A(45,48,50)           114.053          estimate D2E/DX2                !
 ! A91   A(45,48,52)           102.4057         estimate D2E/DX2                !
 ! A92   A(49,48,50)           110.378          estimate D2E/DX2                !
 ! A93   A(49,48,52)           108.0751         estimate D2E/DX2                !
 ! A94   A(50,48,52)           113.0178         estimate D2E/DX2                !
 ! A95   A(48,50,51)           108.5345         estimate D2E/DX2                !
 ! A96   A(48,52,53)           111.5026         estimate D2E/DX2                !
 ! A97   A(48,52,54)           112.9829         estimate D2E/DX2                !
 ! A98   A(48,52,56)           100.2516         estimate D2E/DX2                !
 ! A99   A(53,52,54)           110.5406         estimate D2E/DX2                !
 ! A100  A(53,52,56)           109.3221         estimate D2E/DX2                !
 ! A101  A(54,52,56)           111.8204         estimate D2E/DX2                !
 ! A102  A(52,54,55)           108.4788         estimate D2E/DX2                !
 ! A103  A(47,56,52)           103.4            estimate D2E/DX2                !
 ! A104  A(47,56,57)           116.527          estimate D2E/DX2                !
 ! A105  A(47,56,58)           109.7992         estimate D2E/DX2                !
 ! A106  A(52,56,57)           105.5595         estimate D2E/DX2                !
 ! A107  A(52,56,58)           114.1759         estimate D2E/DX2                !
 ! A108  A(57,56,58)           107.5143         estimate D2E/DX2                !
 ! A109  A(56,58,59)           127.0273         estimate D2E/DX2                !
 ! A110  A(56,58,71)           127.0586         estimate D2E/DX2                !
 ! A111  A(59,58,71)           105.7865         estimate D2E/DX2                !
 ! A112  A(58,59,60)           121.7575         estimate D2E/DX2                !
 ! A113  A(58,59,61)           113.6736         estimate D2E/DX2                !
 ! A114  A(60,59,61)           121.9313         estimate D2E/DX2                !
 ! A115  A(59,61,62)           104.065          estimate D2E/DX2                !
 ! A116  A(61,62,63)           132.1961         estimate D2E/DX2                !
 ! A117  A(61,62,71)           110.223          estimate D2E/DX2                !
 ! A118  A(63,62,71)           117.5708         estimate D2E/DX2                !
 ! A119  A(62,63,64)           124.6675         estimate D2E/DX2                !
 ! A120  A(62,63,67)           116.651          estimate D2E/DX2                !
 ! A121  A(64,63,67)           118.5947         estimate D2E/DX2                !
 ! A122  A(63,64,65)           119.9345         estimate D2E/DX2                !
 ! A123  A(63,64,66)           117.689          estimate D2E/DX2                !
 ! A124  A(65,64,66)           118.1317         estimate D2E/DX2                !
 ! A125  A(63,67,68)           118.9807         estimate D2E/DX2                !
 ! A126  A(67,68,69)           113.7894         estimate D2E/DX2                !
 ! A127  A(67,68,70)           129.659          estimate D2E/DX2                !
 ! A128  A(69,68,70)           113.9148         estimate D2E/DX2                !
 ! A129  A(68,70,71)           110.2631         estimate D2E/DX2                !
 ! A130  A(58,71,62)           106.2432         estimate D2E/DX2                !
 ! A131  A(58,71,70)           126.9086         estimate D2E/DX2                !
 ! A132  A(62,71,70)           126.8481         estimate D2E/DX2                !
 ! D1    D(2,1,3,4)             -8.3421         estimate D2E/DX2                !
 ! D2    D(2,1,3,5)           -166.5639         estimate D2E/DX2                !
 ! D3    D(16,1,3,4)           158.6116         estimate D2E/DX2                !
 ! D4    D(16,1,3,5)             0.3898         estimate D2E/DX2                !
 ! D5    D(2,1,16,14)          166.213          estimate D2E/DX2                !
 ! D6    D(2,1,16,17)          -19.1867         estimate D2E/DX2                !
 ! D7    D(3,1,16,14)           -0.8507         estimate D2E/DX2                !
 ! D8    D(3,1,16,17)          173.7496         estimate D2E/DX2                !
 ! D9    D(1,3,5,6)            121.7955         estimate D2E/DX2                !
 ! D10   D(1,3,5,7)           -123.1817         estimate D2E/DX2                !
 ! D11   D(1,3,5,8)              0.2778         estimate D2E/DX2                !
 ! D12   D(4,3,5,6)            -37.0726         estimate D2E/DX2                !
 ! D13   D(4,3,5,7)             77.9502         estimate D2E/DX2                !
 ! D14   D(4,3,5,8)           -158.5904         estimate D2E/DX2                !
 ! D15   D(3,5,8,9)            179.0367         estimate D2E/DX2                !
 ! D16   D(3,5,8,14)            -0.4716         estimate D2E/DX2                !
 ! D17   D(6,5,8,9)             57.5017         estimate D2E/DX2                !
 ! D18   D(6,5,8,14)          -122.0066         estimate D2E/DX2                !
 ! D19   D(7,5,8,9)            -57.507          estimate D2E/DX2                !
 ! D20   D(7,5,8,14)           122.9847         estimate D2E/DX2                !
 ! D21   D(5,8,9,10)           -15.5788         estimate D2E/DX2                !
 ! D22   D(5,8,9,11)           158.8623         estimate D2E/DX2                !
 ! D23   D(14,8,9,10)          163.9107         estimate D2E/DX2                !
 ! D24   D(14,8,9,11)          -21.6482         estimate D2E/DX2                !
 ! D25   D(5,8,14,15)         -152.2269         estimate D2E/DX2                !
 ! D26   D(5,8,14,16)            0.0156         estimate D2E/DX2                !
 ! D27   D(9,8,14,15)           28.2813         estimate D2E/DX2                !
 ! D28   D(9,8,14,16)         -179.4763         estimate D2E/DX2                !
 ! D29   D(8,9,11,12)           82.3716         estimate D2E/DX2                !
 ! D30   D(8,9,11,13)          -89.2286         estimate D2E/DX2                !
 ! D31   D(10,9,11,12)        -103.5086         estimate D2E/DX2                !
 ! D32   D(10,9,11,13)          84.8913         estimate D2E/DX2                !
 ! D33   D(8,14,16,1)            0.6378         estimate D2E/DX2                !
 ! D34   D(8,14,16,17)        -173.905          estimate D2E/DX2                !
 ! D35   D(15,14,16,1)         153.0424         estimate D2E/DX2                !
 ! D36   D(15,14,16,17)        -21.5004         estimate D2E/DX2                !
 ! D37   D(1,16,17,18)          10.2136         estimate D2E/DX2                !
 ! D38   D(1,16,17,19)         126.9034         estimate D2E/DX2                !
 ! D39   D(1,16,17,29)        -118.7033         estimate D2E/DX2                !
 ! D40   D(14,16,17,18)       -175.1968         estimate D2E/DX2                !
 ! D41   D(14,16,17,19)        -58.507          estimate D2E/DX2                !
 ! D42   D(14,16,17,29)         55.8864         estimate D2E/DX2                !
 ! D43   D(16,17,19,20)         46.7953         estimate D2E/DX2                !
 ! D44   D(16,17,19,21)        -77.5289         estimate D2E/DX2                !
 ! D45   D(16,17,19,23)        160.8662         estimate D2E/DX2                !
 ! D46   D(18,17,19,20)        164.9661         estimate D2E/DX2                !
 ! D47   D(18,17,19,21)         40.6419         estimate D2E/DX2                !
 ! D48   D(18,17,19,23)        -80.963          estimate D2E/DX2                !
 ! D49   D(29,17,19,20)        -70.1638         estimate D2E/DX2                !
 ! D50   D(29,17,19,21)        165.512          estimate D2E/DX2                !
 ! D51   D(29,17,19,23)         43.9071         estimate D2E/DX2                !
 ! D52   D(16,17,29,27)       -156.3908         estimate D2E/DX2                !
 ! D53   D(18,17,29,27)         80.8954         estimate D2E/DX2                !
 ! D54   D(19,17,29,27)        -35.0506         estimate D2E/DX2                !
 ! D55   D(17,19,21,22)        118.2845         estimate D2E/DX2                !
 ! D56   D(20,19,21,22)          8.1541         estimate D2E/DX2                !
 ! D57   D(23,19,21,22)       -130.0772         estimate D2E/DX2                !
 ! D58   D(17,19,23,24)       -155.1262         estimate D2E/DX2                !
 ! D59   D(17,19,23,25)         81.5508         estimate D2E/DX2                !
 ! D60   D(17,19,23,27)        -35.922          estimate D2E/DX2                !
 ! D61   D(20,19,23,24)        -53.2635         estimate D2E/DX2                !
 ! D62   D(20,19,23,25)       -176.5865         estimate D2E/DX2                !
 ! D63   D(20,19,23,27)         65.9407         estimate D2E/DX2                !
 ! D64   D(21,19,23,24)         87.8326         estimate D2E/DX2                !
 ! D65   D(21,19,23,25)        -35.4904         estimate D2E/DX2                !
 ! D66   D(21,19,23,27)       -152.9632         estimate D2E/DX2                !
 ! D67   D(19,23,25,26)       -103.1245         estimate D2E/DX2                !
 ! D68   D(24,23,25,26)        132.9665         estimate D2E/DX2                !
 ! D69   D(27,23,25,26)          9.5114         estimate D2E/DX2                !
 ! D70   D(19,23,27,28)        133.0493         estimate D2E/DX2                !
 ! D71   D(19,23,27,29)         16.871          estimate D2E/DX2                !
 ! D72   D(19,23,27,30)       -103.0282         estimate D2E/DX2                !
 ! D73   D(24,23,27,28)       -107.7754         estimate D2E/DX2                !
 ! D74   D(24,23,27,29)        136.0463         estimate D2E/DX2                !
 ! D75   D(24,23,27,30)         16.1471         estimate D2E/DX2                !
 ! D76   D(25,23,27,28)         15.0585         estimate D2E/DX2                !
 ! D77   D(25,23,27,29)       -101.1198         estimate D2E/DX2                !
 ! D78   D(25,23,27,30)        138.9809         estimate D2E/DX2                !
 ! D79   D(23,27,29,17)         11.2372         estimate D2E/DX2                !
 ! D80   D(28,27,29,17)       -105.6928         estimate D2E/DX2                !
 ! D81   D(30,27,29,17)        136.3614         estimate D2E/DX2                !
 ! D82   D(23,27,30,31)        170.9636         estimate D2E/DX2                !
 ! D83   D(23,27,30,32)        -68.9051         estimate D2E/DX2                !
 ! D84   D(23,27,30,33)         51.4193         estimate D2E/DX2                !
 ! D85   D(28,27,30,31)        -65.0877         estimate D2E/DX2                !
 ! D86   D(28,27,30,32)         55.0437         estimate D2E/DX2                !
 ! D87   D(28,27,30,33)        175.3681         estimate D2E/DX2                !
 ! D88   D(29,27,30,31)         52.1735         estimate D2E/DX2                !
 ! D89   D(29,27,30,32)        172.3048         estimate D2E/DX2                !
 ! D90   D(29,27,30,33)        -67.3708         estimate D2E/DX2                !
 ! D91   D(27,30,33,34)        148.9793         estimate D2E/DX2                !
 ! D92   D(31,30,33,34)         28.6641         estimate D2E/DX2                !
 ! D93   D(32,30,33,34)        -89.9707         estimate D2E/DX2                !
 ! D94   D(30,33,34,35)          5.9594         estimate D2E/DX2                !
 ! D95   D(30,33,34,36)       -128.3944         estimate D2E/DX2                !
 ! D96   D(30,33,34,37)        121.192          estimate D2E/DX2                !
 ! D97   D(33,34,37,38)       -122.8024         estimate D2E/DX2                !
 ! D98   D(35,34,37,38)         -4.8931         estimate D2E/DX2                !
 ! D99   D(36,34,37,38)        126.7907         estimate D2E/DX2                !
 ! D100  D(34,37,38,39)       -179.1589         estimate D2E/DX2                !
 ! D101  D(34,37,38,40)        -48.1371         estimate D2E/DX2                !
 ! D102  D(34,37,38,41)         66.5026         estimate D2E/DX2                !
 ! D103  D(37,38,41,42)         67.8014         estimate D2E/DX2                !
 ! D104  D(39,38,41,42)        -44.5484         estimate D2E/DX2                !
 ! D105  D(40,38,41,42)       -173.8245         estimate D2E/DX2                !
 ! D106  D(38,41,42,43)         20.9918         estimate D2E/DX2                !
 ! D107  D(38,41,42,44)        -96.9986         estimate D2E/DX2                !
 ! D108  D(38,41,42,45)        141.9223         estimate D2E/DX2                !
 ! D109  D(41,42,45,46)         61.9215         estimate D2E/DX2                !
 ! D110  D(41,42,45,47)        178.9078         estimate D2E/DX2                !
 ! D111  D(41,42,45,48)        -62.249          estimate D2E/DX2                !
 ! D112  D(43,42,45,46)       -177.908          estimate D2E/DX2                !
 ! D113  D(43,42,45,47)        -60.9216         estimate D2E/DX2                !
 ! D114  D(43,42,45,48)         57.9215         estimate D2E/DX2                !
 ! D115  D(44,42,45,46)        -58.4184         estimate D2E/DX2                !
 ! D116  D(44,42,45,47)         58.5679         estimate D2E/DX2                !
 ! D117  D(44,42,45,48)        177.4111         estimate D2E/DX2                !
 ! D118  D(42,45,47,56)        142.5329         estimate D2E/DX2                !
 ! D119  D(46,45,47,56)        -99.7886         estimate D2E/DX2                !
 ! D120  D(48,45,47,56)         17.2921         estimate D2E/DX2                !
 ! D121  D(42,45,48,49)          6.0411         estimate D2E/DX2                !
 ! D122  D(42,45,48,50)        129.4834         estimate D2E/DX2                !
 ! D123  D(42,45,48,52)       -108.0631         estimate D2E/DX2                !
 ! D124  D(46,45,48,49)       -118.11           estimate D2E/DX2                !
 ! D125  D(46,45,48,50)          5.3324         estimate D2E/DX2                !
 ! D126  D(46,45,48,52)        127.7859         estimate D2E/DX2                !
 ! D127  D(47,45,48,49)        125.5465         estimate D2E/DX2                !
 ! D128  D(47,45,48,50)       -111.0112         estimate D2E/DX2                !
 ! D129  D(47,45,48,52)         11.4423         estimate D2E/DX2                !
 ! D130  D(45,47,56,52)        -39.447          estimate D2E/DX2                !
 ! D131  D(45,47,56,57)         75.8373         estimate D2E/DX2                !
 ! D132  D(45,47,56,58)       -161.6701         estimate D2E/DX2                !
 ! D133  D(45,48,50,51)          3.5789         estimate D2E/DX2                !
 ! D134  D(49,48,50,51)        125.9813         estimate D2E/DX2                !
 ! D135  D(52,48,50,51)       -112.8595         estimate D2E/DX2                !
 ! D136  D(45,48,52,53)         82.5284         estimate D2E/DX2                !
 ! D137  D(45,48,52,54)       -152.2513         estimate D2E/DX2                !
 ! D138  D(45,48,52,56)        -33.1075         estimate D2E/DX2                !
 ! D139  D(49,48,52,53)        -31.8642         estimate D2E/DX2                !
 ! D140  D(49,48,52,54)         93.3562         estimate D2E/DX2                !
 ! D141  D(49,48,52,56)       -147.5001         estimate D2E/DX2                !
 ! D142  D(50,48,52,53)       -154.3185         estimate D2E/DX2                !
 ! D143  D(50,48,52,54)        -29.0982         estimate D2E/DX2                !
 ! D144  D(50,48,52,56)         90.0456         estimate D2E/DX2                !
 ! D145  D(48,52,54,55)         30.2592         estimate D2E/DX2                !
 ! D146  D(53,52,54,55)        155.9983         estimate D2E/DX2                !
 ! D147  D(56,52,54,55)        -81.9535         estimate D2E/DX2                !
 ! D148  D(48,52,56,47)         45.0717         estimate D2E/DX2                !
 ! D149  D(48,52,56,57)        -77.8108         estimate D2E/DX2                !
 ! D150  D(48,52,56,58)        164.322          estimate D2E/DX2                !
 ! D151  D(53,52,56,47)        -72.1953         estimate D2E/DX2                !
 ! D152  D(53,52,56,57)        164.9222         estimate D2E/DX2                !
 ! D153  D(53,52,56,58)         47.055          estimate D2E/DX2                !
 ! D154  D(54,52,56,47)        165.0602         estimate D2E/DX2                !
 ! D155  D(54,52,56,57)         42.1777         estimate D2E/DX2                !
 ! D156  D(54,52,56,58)        -75.6895         estimate D2E/DX2                !
 ! D157  D(47,56,58,59)         71.5691         estimate D2E/DX2                !
 ! D158  D(47,56,58,71)       -113.1296         estimate D2E/DX2                !
 ! D159  D(52,56,58,59)        -44.0            estimate D2E/DX2                !
 ! D160  D(52,56,58,71)        131.3013         estimate D2E/DX2                !
 ! D161  D(57,56,58,59)       -160.7428         estimate D2E/DX2                !
 ! D162  D(57,56,58,71)         14.5585         estimate D2E/DX2                !
 ! D163  D(56,58,59,60)         14.0546         estimate D2E/DX2                !
 ! D164  D(56,58,59,61)        175.9639         estimate D2E/DX2                !
 ! D165  D(71,58,59,60)       -162.0502         estimate D2E/DX2                !
 ! D166  D(71,58,59,61)         -0.1408         estimate D2E/DX2                !
 ! D167  D(56,58,71,62)       -176.5588         estimate D2E/DX2                !
 ! D168  D(56,58,71,70)          3.3117         estimate D2E/DX2                !
 ! D169  D(59,58,71,62)         -0.4556         estimate D2E/DX2                !
 ! D170  D(59,58,71,70)        179.4149         estimate D2E/DX2                !
 ! D171  D(58,59,61,62)          0.6648         estimate D2E/DX2                !
 ! D172  D(60,59,61,62)        162.5389         estimate D2E/DX2                !
 ! D173  D(59,61,62,63)       -179.7274         estimate D2E/DX2                !
 ! D174  D(59,61,62,71)         -0.9449         estimate D2E/DX2                !
 ! D175  D(61,62,63,64)          3.1616         estimate D2E/DX2                !
 ! D176  D(61,62,63,67)        179.7147         estimate D2E/DX2                !
 ! D177  D(71,62,63,64)       -175.5495         estimate D2E/DX2                !
 ! D178  D(71,62,63,67)          1.0036         estimate D2E/DX2                !
 ! D179  D(61,62,71,58)          0.884          estimate D2E/DX2                !
 ! D180  D(61,62,71,70)       -178.9866         estimate D2E/DX2                !
 ! D181  D(63,62,71,58)        179.8664         estimate D2E/DX2                !
 ! D182  D(63,62,71,70)         -0.0042         estimate D2E/DX2                !
 ! D183  D(62,63,64,65)         88.4046         estimate D2E/DX2                !
 ! D184  D(62,63,64,66)       -115.1581         estimate D2E/DX2                !
 ! D185  D(67,63,64,65)        -88.0867         estimate D2E/DX2                !
 ! D186  D(67,63,64,66)         68.3506         estimate D2E/DX2                !
 ! D187  D(62,63,67,68)         -0.5912         estimate D2E/DX2                !
 ! D188  D(64,63,67,68)        176.1803         estimate D2E/DX2                !
 ! D189  D(63,67,68,69)        159.2086         estimate D2E/DX2                !
 ! D190  D(63,67,68,70)         -0.9962         estimate D2E/DX2                !
 ! D191  D(67,68,70,71)          1.8687         estimate D2E/DX2                !
 ! D192  D(69,68,70,71)       -158.3161         estimate D2E/DX2                !
 ! D193  D(68,70,71,58)        178.8536         estimate D2E/DX2                !
 ! D194  D(68,70,71,62)         -1.3019         estimate D2E/DX2                !
 --------------------------------------------------------------------------------
 Trust Radius=3.00D-01 FncErr=1.00D-07 GrdErr=1.00D-07
 Number of steps in this run=    411 maximum allowed number of steps=    426.
 GradGradGradGradGradGradGradGradGradGradGradGradGradGradGradGradGradGrad

 Stoichiometry    C21H27N7O14P2(2-)
 Framework group  C1[X(C21H27N7O14P2)]
 Deg. of freedom   207
 Full point group                 C1      NOp   1
 Largest Abelian subgroup         C1      NOp   1
 Largest concise Abelian subgroup C1      NOp   1
                         Standard orientation:                         
 ---------------------------------------------------------------------
 Center     Atomic      Atomic             Coordinates (Angstroms)
 Number     Number       Type             X           Y           Z
 ---------------------------------------------------------------------
      1          6           0        6.635322   -3.090222   -0.385026
      2          1           0        6.436430   -4.137671   -0.558090
      3          6           0        7.919973   -2.690772   -0.098136
      4          1           0        8.687664   -3.427963    0.084905
      5          6           0        8.138062   -1.430126    0.390489
      6          1           0        8.573609   -1.534546    1.227581
      7          1           0        8.746963   -0.998482   -0.196093
      8          6           0        7.065289   -0.553174    0.603633
      9          6           0        7.341037    0.822662    1.164590
     10          8           0        8.440773    1.020492    1.683433
     11          7           0        6.439851    1.784979    0.977041
     12          1           0        5.639219    1.850073    1.589323
     13          1           0        6.490928    2.365344    0.151479
     14          6           0        5.779845   -0.986982    0.299426
     15          1           0        5.054672   -0.236338    0.023130
     16          7           0        5.581006   -2.258321   -0.201204
     17          6           0        4.233389   -2.683106   -0.654897
     18          1           0        4.288536   -3.737474   -0.926571
     19          6           0        3.156665   -2.600645    0.421203
     20          1           0        3.404132   -1.602157    0.781515
     21          8           0        3.287591   -3.703591    1.298883
     22          1           0        3.471765   -3.377113    2.166664
     23          6           0        1.904091   -2.603776   -0.458795
     24          1           0        1.062863   -2.127322    0.045254
     25          8           0        1.562163   -3.927301   -0.848414
     26          1           0        1.829972   -4.054502   -1.745940
     27          6           0        2.357681   -1.793222   -1.681235
     28          1           0        2.064202   -2.319701   -2.589133
     29          8           0        3.796400   -1.765593   -1.625965
     30          6           0        1.868327   -0.373086   -1.754694
     31          1           0        2.365278    0.163671   -2.562134
     32          1           0        0.793712   -0.337828   -1.934538
     33          8           0        2.178653    0.263995   -0.487762
     34         15           0        2.493295    1.821960   -0.452137
     35          8           0        2.280918    2.468156   -1.781346
     36          8           0        3.790071    1.965984    0.282932
     37          8           0        1.358506    2.336903    0.547959
     38         15           0        0.179030    3.389382    0.498181
     39          8           0       -0.470631    3.348247    1.840599
     40          8           0        0.627303    4.720769   -0.045672
     41          8           0       -0.815855    2.760819   -0.574898
     42          6           0       -1.536646    1.529903   -0.297418
     43          1           0       -1.580857    1.370669    0.779988
     44          1           0       -1.002242    0.687422   -0.737530
     45          6           0       -2.927102    1.642631   -0.876933
     46          1           0       -2.855532    1.763823   -1.957551
     47          8           0       -3.611072    0.394844   -0.608433
     48          6           0       -3.821179    2.754579   -0.301131
     49          1           0       -3.225263    3.356498    0.383944
     50          8           0       -4.428514    3.583226   -1.290775
     51          1           0       -4.201324    3.247429   -2.144348
     52          6           0       -4.840839    1.962428    0.525436
     53          1           0       -4.447099    1.709678    1.510093
     54          8           0       -6.084979    2.619686    0.643134
     55          1           0       -6.223185    3.140660   -0.133250
     56          6           0       -4.946183    0.700596   -0.312583
     57          1           0       -5.584024    0.962537   -1.156473
     58          7           0       -5.570720   -0.425906    0.377730
     59          6           0       -5.331653   -0.843834    1.669693
     60          1           0       -4.801303   -0.224710    2.378668
     61          7           0       -6.103404   -1.840016    2.054891
     62          6           0       -6.894172   -2.106970    0.938793
     63          6           0       -7.918034   -3.049935    0.706146
     64          7           0       -8.393192   -3.901070    1.624984
     65          1           0       -9.155093   -3.620752    2.225117
     66          1           0       -8.247618   -4.888217    1.469939
     67          7           0       -8.494256   -3.031570   -0.520655
     68          6           0       -8.075688   -2.127620   -1.423425
     69          1           0       -8.308013   -2.392006   -2.444820
     70          7           0       -7.149020   -1.179347   -1.309058
     71          6           0       -6.579139   -1.230243   -0.094688
 ---------------------------------------------------------------------
 Rotational constants (GHZ):      0.1096667      0.0287590      0.0243165
 Standard basis: 6-31G(d) (6D, 7F)
 There are   722 symmetry adapted cartesian basis functions of A   symmetry.
 There are   722 symmetry adapted basis functions of A   symmetry.
   722 basis functions,  1388 primitive gaussians,   722 cartesian basis functions
   173 alpha electrons      173 beta electrons
       nuclear repulsion energy      6055.8474174581 Hartrees.
 NAtoms=   71 NActive=   71 NUniq=   71 SFac= 1.00D+00 NAtFMM=   60 NAOKFM=T Big=T
 Integral buffers will be    131072 words long.
 Raffenetti 1 integral format.
 Two-electron integral symmetry is turned on.
 ------------------------------------------------------------------------------
 Polarizable Continuum Model (PCM)
 =================================
 Model                : PCM (using non-symmetric T matrix).
 Atomic radii         : SMD-Coulomb.
 Polarization charges : Total charges.
 Charge compensation  : None.
 Solution method      : On-the-fly selection.
 Cavity type          : VdW (van der Waals Surface) (Alpha=1.000).
 Cavity algorithm     : GePol (No added spheres)
                        Default sphere list used, NSphG=   71.
                        Lebedev-Laikov grids with approx.  5.0 points / Ang**2.
                        Smoothing algorithm: York/Karplus (Gamma=1.0000).
                        Polarization charges: spherical gaussians, with
                                              point-specific exponents (IZeta= 3).
                        Self-potential: point-specific (ISelfS= 7).
                        Self-field    : sphere-specific E.n sum rule (ISelfD= 2).
 1st derivatives      : Analytical E(r).r(x)/FMM algorithm (CHGder, D1EAlg=3).
                        Cavity 1st derivative terms included.
 Solvent              : Water, Eps=  78.355300 Eps(inf)=   1.777849
 ------------------------------------------------------------------------------
 ------------------------------------------------------------------------------
 Atomic radii for non-electrostatic terms: SMD-CDS.
 ------------------------------------------------------------------------------
 Nuclear repulsion after PCM non-electrostatic terms =     6055.8662654028 Hartrees.
 One-electron integrals computed using PRISM.
 NBasis=   722 RedAO= T EigKep=  7.54D-04  NBF=   722
 NBsUse=   722 1.00D-06 EigRej= -1.00D+00 NBFU=   722
 ExpMin= 9.98D-02 ExpMax= 1.94D+04 ExpMxC= 2.91D+03 IAcc=2 IRadAn=         4 AccDes= 0.00D+00
 Harris functional with IExCor=  205 and IRadAn=       4 diagonalized for initial guess.
 HarFok:  IExCor=  205 AccDes= 0.00D+00 IRadAn=         4 IDoV= 1 UseB2=F ITyADJ=14
 ICtDFT=  3500011 ScaDFX=  1.000000  1.000000  1.000000  1.000000
 FoFCou: FMM=F IPFlag=           0 FMFlag=      100000 FMFlg1=        2001
         NFxFlg=           0 DoJE=T BraDBF=F KetDBF=T FulRan=T
         wScrn=  0.000000 ICntrl=     500 IOpCl=  0 I1Cent=   200000004 NGrid=           0
         NMat0=    1 NMatS0=      1 NMatT0=    0 NMatD0=    1 NMtDS0=    0 NMtDT0=    0
 Petite list used in FoFCou.
 Requested convergence on RMS density matrix=1.00D-08 within 128 cycles.
 Requested convergence on MAX density matrix=1.00D-06.
 Requested convergence on             energy=1.00D-06.
 No special actions if energy rises.
 Inv3:  Mode=1 IEnd=    75060012.
 Iteration    1 A*A^-1 deviation from unit magnitude is 7.55D-15 for   5000.
 Iteration    1 A*A^-1 deviation from orthogonality  is 3.91D-15 for   4985   1997.
 Iteration    1 A^-1*A deviation from unit magnitude is 7.55D-15 for   5000.
 Iteration    1 A^-1*A deviation from orthogonality  is 5.35D-10 for   3259   3226.
 Iteration    2 A*A^-1 deviation from unit magnitude is 2.66D-15 for    594.
 Iteration    2 A*A^-1 deviation from orthogonality  is 2.54D-15 for   3025   1503.
 Iteration    2 A^-1*A deviation from unit magnitude is 9.99D-16 for    736.
 Iteration    2 A^-1*A deviation from orthogonality  is 4.73D-16 for    862    188.
 Error on total polarization charges =  0.05704
 SCF Done:  E(RHF) =  -2921.95934364     A.U. after   16 cycles
            NFock= 16  Conv=0.45D-08     -V/T= 2.0016
 SMD-CDS (non-electrostatic) energy       (kcal/mol) =      11.83
 (included in total energy above)

 **********************************************************************

            Population analysis using the SCF density.

 **********************************************************************

 Orbital symmetries:
       Occupied  (A) (A) (A) (A) (A) (A) (A) (A) (A) (A) (A) (A)
                 (A) (A) (A) (A) (A) (A) (A) (A) (A) (A) (A) (A)
                 (A) (A) (A) (A) (A) (A) (A) (A) (A) (A) (A) (A)
                 (A) (A) (A) (A) (A) (A) (A) (A) (A) (A) (A) (A)
                 (A) (A) (A) (A) (A) (A) (A) (A) (A) (A) (A) (A)
                 (A) (A) (A) (A) (A) (A) (A) (A) (A) (A) (A) (A)
                 (A) (A) (A) (A) (A) (A) (A) (A) (A) (A) (A) (A)
                 (A) (A) (A) (A) (A) (A) (A) (A) (A) (A) (A) (A)
                 (A) (A) (A) (A) (A) (A) (A) (A) (A) (A) (A) (A)
                 (A) (A) (A) (A) (A) (A) (A) (A) (A) (A) (A) (A)
                 (A) (A) (A) (A) (A) (A) (A) (A) (A) (A) (A) (A)
                 (A) (A) (A) (A) (A) (A) (A) (A) (A) (A) (A) (A)
                 (A) (A) (A) (A) (A) (A) (A) (A) (A) (A) (A) (A)
                 (A) (A) (A) (A) (A) (A) (A) (A) (A) (A) (A) (A)
                 (A) (A) (A) (A) (A)
       Virtual   (A) (A) (A) (A) (A) (A) (A) (A) (A) (A) (A) (A)
                 (A) (A) (A) (A) (A) (A) (A) (A) (A) (A) (A) (A)
                 (A) (A) (A) (A) (A) (A) (A) (A) (A) (A) (A) (A)
                 (A) (A) (A) (A) (A) (A) (A) (A) (A) (A) (A) (A)
                 (A) (A) (A) (A) (A) (A) (A) (A) (A) (A) (A) (A)
                 (A) (A) (A) (A) (A) (A) (A) (A) (A) (A) (A) (A)
                 (A) (A) (A) (A) (A) (A) (A) (A) (A) (A) (A) (A)
                 (A) (A) (A) (A) (A) (A) (A) (A) (A) (A) (A) (A)
                 (A) (A) (A) (A) (A) (A) (A) (A) (A) (A) (A) (A)
                 (A) (A) (A) (A) (A) (A) (A) (A) (A) (A) (A) (A)
                 (A) (A) (A) (A) (A) (A) (A) (A) (A) (A) (A) (A)
                 (A) (A) (A) (A) (A) (A) (A) (A) (A) (A) (A) (A)
                 (A) (A) (A) (A) (A) (A) (A) (A) (A) (A) (A) (A)
                 (A) (A) (A) (A) (A) (A) (A) (A) (A) (A) (A) (A)
                 (A) (A) (A) (A) (A) (A) (A) (A) (A) (A) (A) (A)
                 (A) (A) (A) (A) (A) (A) (A) (A) (A) (A) (A) (A)
                 (A) (A) (A) (A) (A) (A) (A) (A) (A) (A) (A) (A)
                 (A) (A) (A) (A) (A) (A) (A) (A) (A) (A) (A) (A)
                 (A) (A) (A) (A) (A) (A) (A) (A) (A) (A) (A) (A)
                 (A) (A) (A) (A) (A) (A) (A) (A) (A) (A) (A) (A)
                 (A) (A) (A) (A) (A) (A) (A) (A) (A) (A) (A) (A)
                 (A) (A) (A) (A) (A) (A) (A) (A) (A) (A) (A) (A)
                 (A) (A) (A) (A) (A) (A) (A) (A) (A) (A) (A) (A)
                 (A) (A) (A) (A) (A) (A) (A) (A) (A) (A) (A) (A)
                 (A) (A) (A) (A) (A) (A) (A) (A) (A) (A) (A) (A)
                 (A) (A) (A) (A) (A) (A) (A) (A) (A) (A) (A) (A)
                 (A) (A) (A) (A) (A) (A) (A) (A) (A) (A) (A) (A)
                 (A) (A) (A) (A) (A) (A) (A) (A) (A) (A) (A) (A)
                 (A) (A) (A) (A) (A) (A) (A) (A) (A) (A) (A) (A)
                 (A) (A) (A) (A) (A) (A) (A) (A) (A) (A) (A) (A)
                 (A) (A) (A) (A) (A) (A) (A) (A) (A) (A) (A) (A)
                 (A) (A) (A) (A) (A) (A) (A) (A) (A) (A) (A) (A)
                 (A) (A) (A) (A) (A) (A) (A) (A) (A) (A) (A) (A)
                 (A) (A) (A) (A) (A) (A) (A) (A) (A) (A) (A) (A)
                 (A) (A) (A) (A) (A) (A) (A) (A) (A) (A) (A) (A)
                 (A) (A) (A) (A) (A) (A) (A) (A) (A) (A) (A) (A)
                 (A) (A) (A) (A) (A) (A) (A) (A) (A) (A) (A) (A)
                 (A) (A) (A) (A) (A) (A) (A) (A) (A) (A) (A) (A)
                 (A) (A) (A) (A) (A) (A) (A) (A) (A) (A) (A) (A)
                 (A) (A) (A) (A) (A) (A) (A) (A) (A) (A) (A) (A)
                 (A) (A) (A) (A) (A) (A) (A) (A) (A) (A) (A) (A)
                 (A) (A) (A) (A) (A) (A) (A) (A) (A) (A) (A) (A)
                 (A) (A) (A) (A) (A) (A) (A) (A) (A) (A) (A) (A)
                 (A) (A) (A) (A) (A) (A) (A) (A) (A) (A) (A) (A)
                 (A) (A) (A) (A) (A) (A) (A) (A) (A) (A) (A) (A)
                 (A) (A) (A) (A) (A) (A) (A) (A) (A)
 The electronic state is 1-A.
 Alpha  occ. eigenvalues --  -80.07329 -80.07327 -20.58993 -20.58106 -20.58027
 Alpha  occ. eigenvalues --  -20.57973 -20.57904 -20.57884 -20.57385 -20.57011
 Alpha  occ. eigenvalues --  -20.56957 -20.54445 -20.50197 -20.49774 -20.49388
 Alpha  occ. eigenvalues --  -20.49312 -15.63486 -15.59447 -15.57951 -15.57037
 Alpha  occ. eigenvalues --  -15.56375 -15.54526 -15.52829 -11.35699 -11.33371
 Alpha  occ. eigenvalues --  -11.33323 -11.32378 -11.32201 -11.31758 -11.31057
 Alpha  occ. eigenvalues --  -11.29519 -11.28931 -11.28923 -11.28809 -11.28725
 Alpha  occ. eigenvalues --  -11.28680 -11.28570 -11.28050 -11.27854 -11.26128
 Alpha  occ. eigenvalues --  -11.25891 -11.21539 -11.20014 -11.15908  -7.59562
 Alpha  occ. eigenvalues --   -7.59502  -5.49480  -5.49443  -5.49416  -5.49336
 Alpha  occ. eigenvalues --   -5.49289  -5.49242  -1.44444  -1.42716  -1.41947
 Alpha  occ. eigenvalues --   -1.39855  -1.38569  -1.38564  -1.37695  -1.36874
 Alpha  occ. eigenvalues --   -1.36441  -1.36210  -1.36180  -1.29949  -1.29821
 Alpha  occ. eigenvalues --   -1.28236  -1.27969  -1.25599  -1.25027  -1.24234
 Alpha  occ. eigenvalues --   -1.19184  -1.18759  -1.15039  -1.11960  -1.05729
 Alpha  occ. eigenvalues --   -1.05370  -1.04457  -1.03450  -1.02926  -1.02667
 Alpha  occ. eigenvalues --   -0.93813  -0.93560  -0.88938  -0.88753  -0.87989
 Alpha  occ. eigenvalues --   -0.87359  -0.86005  -0.84854  -0.82765  -0.81699
 Alpha  occ. eigenvalues --   -0.80921  -0.79300  -0.78491  -0.76012  -0.75400
 Alpha  occ. eigenvalues --   -0.73913  -0.73226  -0.72885  -0.71973  -0.71544
 Alpha  occ. eigenvalues --   -0.70435  -0.69139  -0.68843  -0.68758  -0.68373
 Alpha  occ. eigenvalues --   -0.68259  -0.67693  -0.66699  -0.66543  -0.65893
 Alpha  occ. eigenvalues --   -0.65711  -0.64877  -0.64746  -0.64314  -0.63916
 Alpha  occ. eigenvalues --   -0.63456  -0.63074  -0.62829  -0.62354  -0.62147
 Alpha  occ. eigenvalues --   -0.61917  -0.61539  -0.61473  -0.60706  -0.60120
 Alpha  occ. eigenvalues --   -0.59424  -0.59246  -0.58599  -0.58397  -0.57748
 Alpha  occ. eigenvalues --   -0.57487  -0.56410  -0.55678  -0.54526  -0.53616
 Alpha  occ. eigenvalues --   -0.53290  -0.53062  -0.52911  -0.52541  -0.51691
 Alpha  occ. eigenvalues --   -0.51236  -0.50816  -0.50623  -0.50374  -0.50264
 Alpha  occ. eigenvalues --   -0.49444  -0.48803  -0.48187  -0.48031  -0.47684
 Alpha  occ. eigenvalues --   -0.47520  -0.47050  -0.46639  -0.45857  -0.45761
 Alpha  occ. eigenvalues --   -0.45552  -0.44965  -0.44572  -0.44490  -0.43587
 Alpha  occ. eigenvalues --   -0.43499  -0.43095  -0.42431  -0.42293  -0.41913
 Alpha  occ. eigenvalues --   -0.41770  -0.40906  -0.40019  -0.38597  -0.37049
 Alpha  occ. eigenvalues --   -0.35264  -0.32432  -0.25728
 Alpha virt. eigenvalues --    0.09615   0.10118   0.14359   0.18795   0.19790
 Alpha virt. eigenvalues --    0.21903   0.23534   0.23632   0.24013   0.24495
 Alpha virt. eigenvalues --    0.24679   0.25143   0.25361   0.25575   0.26600
 Alpha virt. eigenvalues --    0.27029   0.27820   0.28469   0.29100   0.29848
 Alpha virt. eigenvalues --    0.29854   0.30470   0.30584   0.31078   0.31737
 Alpha virt. eigenvalues --    0.31756   0.31917   0.32418   0.32689   0.33017
 Alpha virt. eigenvalues --    0.33872   0.34171   0.35364   0.35471   0.35779
 Alpha virt. eigenvalues --    0.36054   0.36404   0.36856   0.37267   0.37653
 Alpha virt. eigenvalues --    0.38097   0.38301   0.39092   0.39595   0.39920
 Alpha virt. eigenvalues --    0.40618   0.40915   0.41298   0.41620   0.42827
 Alpha virt. eigenvalues --    0.42895   0.44125   0.44342   0.44888   0.45200
 Alpha virt. eigenvalues --    0.45508   0.45829   0.46305   0.47368   0.47798
 Alpha virt. eigenvalues --    0.48430   0.49099   0.49487   0.49775   0.49888
 Alpha virt. eigenvalues --    0.50212   0.50870   0.51876   0.52523   0.52701
 Alpha virt. eigenvalues --    0.53340   0.54864   0.55094   0.55828   0.56780
 Alpha virt. eigenvalues --    0.57712   0.58883   0.59286   0.59481   0.60720
 Alpha virt. eigenvalues --    0.61376   0.62440   0.63838   0.63871   0.65009
 Alpha virt. eigenvalues --    0.66265   0.67227   0.67747   0.68411   0.69858
 Alpha virt. eigenvalues --    0.72471   0.73808   0.74503   0.75567   0.75808
 Alpha virt. eigenvalues --    0.75951   0.76570   0.77939   0.78549   0.78763
 Alpha virt. eigenvalues --    0.79167   0.79400   0.79512   0.80181   0.80912
 Alpha virt. eigenvalues --    0.81169   0.81373   0.81718   0.82112   0.82403
 Alpha virt. eigenvalues --    0.82475   0.83232   0.83312   0.84765   0.84861
 Alpha virt. eigenvalues --    0.85137   0.85955   0.86260   0.87161   0.87567
 Alpha virt. eigenvalues --    0.88109   0.89119   0.89330   0.89396   0.89928
 Alpha virt. eigenvalues --    0.90249   0.90922   0.91241   0.91611   0.91793
 Alpha virt. eigenvalues --    0.92825   0.93248   0.93697   0.93932   0.94378
 Alpha virt. eigenvalues --    0.94589   0.95147   0.96038   0.96119   0.96505
 Alpha virt. eigenvalues --    0.97398   0.97986   0.98233   0.99020   0.99903
 Alpha virt. eigenvalues --    1.00399   1.00436   1.01258   1.01383   1.01643
 Alpha virt. eigenvalues --    1.02032   1.03608   1.04155   1.04652   1.05085
 Alpha virt. eigenvalues --    1.05540   1.05759   1.06227   1.06531   1.07288
 Alpha virt. eigenvalues --    1.07546   1.07967   1.08373   1.08581   1.09782
 Alpha virt. eigenvalues --    1.09997   1.10135   1.10354   1.10687   1.11340
 Alpha virt. eigenvalues --    1.11731   1.12314   1.12655   1.13328   1.13637
 Alpha virt. eigenvalues --    1.14046   1.14641   1.14976   1.15128   1.15327
 Alpha virt. eigenvalues --    1.16170   1.16300   1.16587   1.17531   1.18369
 Alpha virt. eigenvalues --    1.18726   1.19332   1.19597   1.19710   1.20207
 Alpha virt. eigenvalues --    1.20433   1.21034   1.21468   1.21891   1.22293
 Alpha virt. eigenvalues --    1.22931   1.23242   1.24058   1.24130   1.24431
 Alpha virt. eigenvalues --    1.24593   1.25905   1.26071   1.26246   1.26661
 Alpha virt. eigenvalues --    1.26770   1.28040   1.28347   1.28634   1.29170
 Alpha virt. eigenvalues --    1.29599   1.30756   1.31186   1.31551   1.31623
 Alpha virt. eigenvalues --    1.32048   1.32786   1.33537   1.33577   1.34155
 Alpha virt. eigenvalues --    1.34432   1.35098   1.35153   1.35584   1.36419
 Alpha virt. eigenvalues --    1.36517   1.37715   1.38276   1.38307   1.39155
 Alpha virt. eigenvalues --    1.39615   1.39715   1.40393   1.41139   1.41867
 Alpha virt. eigenvalues --    1.42526   1.43359   1.43518   1.43902   1.44544
 Alpha virt. eigenvalues --    1.44951   1.45392   1.45997   1.46842   1.47367
 Alpha virt. eigenvalues --    1.47783   1.48437   1.49425   1.49570   1.50403
 Alpha virt. eigenvalues --    1.51177   1.52323   1.53222   1.53375   1.53859
 Alpha virt. eigenvalues --    1.54427   1.54977   1.55909   1.56627   1.56966
 Alpha virt. eigenvalues --    1.57857   1.58442   1.59562   1.60125   1.61034
 Alpha virt. eigenvalues --    1.61373   1.62464   1.62639   1.64613   1.65121
 Alpha virt. eigenvalues --    1.65634   1.66083   1.66804   1.67684   1.68963
 Alpha virt. eigenvalues --    1.71019   1.72093   1.73183   1.73535   1.74061
 Alpha virt. eigenvalues --    1.74970   1.76046   1.76843   1.77391   1.78138
 Alpha virt. eigenvalues --    1.79491   1.79887   1.80244   1.80735   1.81727
 Alpha virt. eigenvalues --    1.82879   1.83236   1.84248   1.85760   1.86491
 Alpha virt. eigenvalues --    1.86790   1.88192   1.88431   1.88507   1.89360
 Alpha virt. eigenvalues --    1.89850   1.90540   1.90869   1.92102   1.92862
 Alpha virt. eigenvalues --    1.93701   1.94816   1.95109   1.96374   1.97361
 Alpha virt. eigenvalues --    1.97773   1.99242   1.99996   2.00421   2.01298
 Alpha virt. eigenvalues --    2.01513   2.02968   2.03274   2.03541   2.03989
 Alpha virt. eigenvalues --    2.04605   2.04779   2.05467   2.06248   2.06788
 Alpha virt. eigenvalues --    2.07484   2.07584   2.08564   2.09046   2.09205
 Alpha virt. eigenvalues --    2.09871   2.10653   2.10814   2.11254   2.12137
 Alpha virt. eigenvalues --    2.12801   2.13385   2.14334   2.14771   2.14782
 Alpha virt. eigenvalues --    2.15239   2.15559   2.15697   2.16209   2.16346
 Alpha virt. eigenvalues --    2.16695   2.17515   2.18842   2.19163   2.20021
 Alpha virt. eigenvalues --    2.20501   2.21424   2.22310   2.22669   2.23158
 Alpha virt. eigenvalues --    2.23686   2.24730   2.25496   2.26833   2.27455
 Alpha virt. eigenvalues --    2.27772   2.27828   2.28809   2.29028   2.29232
 Alpha virt. eigenvalues --    2.30949   2.31506   2.32607   2.32985   2.33526
 Alpha virt. eigenvalues --    2.33944   2.34573   2.35158   2.35854   2.36686
 Alpha virt. eigenvalues --    2.37449   2.38326   2.38548   2.39388   2.40214
 Alpha virt. eigenvalues --    2.41446   2.41684   2.41889   2.42049   2.43446
 Alpha virt. eigenvalues --    2.43878   2.45565   2.46063   2.46946   2.47046
 Alpha virt. eigenvalues --    2.48569   2.49793   2.50198   2.50701   2.51399
 Alpha virt. eigenvalues --    2.51813   2.52264   2.52612   2.52911   2.53506
 Alpha virt. eigenvalues --    2.53995   2.55751   2.56270   2.56385   2.57049
 Alpha virt. eigenvalues --    2.58274   2.59508   2.59960   2.60474   2.60642
 Alpha virt. eigenvalues --    2.61854   2.62598   2.62776   2.63565   2.64423
 Alpha virt. eigenvalues --    2.64651   2.65754   2.66821   2.67329   2.68313
 Alpha virt. eigenvalues --    2.68414   2.68500   2.70287   2.71644   2.71844
 Alpha virt. eigenvalues --    2.72769   2.74354   2.74544   2.75514   2.76738
 Alpha virt. eigenvalues --    2.78476   2.79738   2.80575   2.81033   2.81099
 Alpha virt. eigenvalues --    2.83069   2.83578   2.85117   2.85365   2.86119
 Alpha virt. eigenvalues --    2.86583   2.87644   2.88871   2.89141   2.90563
 Alpha virt. eigenvalues --    2.91292   2.91843   2.93055   2.93412   2.95214
 Alpha virt. eigenvalues --    2.96844   2.97011   2.97488   2.98641   2.99811
 Alpha virt. eigenvalues --    3.00565   3.00845   3.01313   3.02713   3.03052
 Alpha virt. eigenvalues --    3.04045   3.04668   3.05431   3.05831   3.06613
 Alpha virt. eigenvalues --    3.07409   3.07669   3.09537   3.10330   3.10905
 Alpha virt. eigenvalues --    3.11822   3.13444   3.14106   3.15329   3.16107
 Alpha virt. eigenvalues --    3.16903   3.17578   3.18395   3.18690   3.20159
 Alpha virt. eigenvalues --    3.21399   3.22547   3.23834   3.24865   3.25476
 Alpha virt. eigenvalues --    3.25546   3.28125   3.29012   3.29326   3.30705
 Alpha virt. eigenvalues --    3.30882   3.32982   3.33174   3.35159   3.37311
 Alpha virt. eigenvalues --    3.40350   3.41801   3.42445   3.43661   3.44134
 Alpha virt. eigenvalues --    3.57127   3.57556   3.65293   3.80127   3.81811
 Alpha virt. eigenvalues --    3.89119   3.90875   4.14722   4.18822   4.21510
 Alpha virt. eigenvalues --    4.23461   4.28298   4.30082   4.30183   4.32754
 Alpha virt. eigenvalues --    4.36267   4.36876   4.42691   4.44242   4.44653
 Alpha virt. eigenvalues --    4.45696   4.47051   4.50258   4.52142   4.54039
 Alpha virt. eigenvalues --    4.56888   4.59184   4.59761   4.63624   4.64587
 Alpha virt. eigenvalues --    4.68993   4.70284   4.74071   4.75121   4.77424
 Alpha virt. eigenvalues --    4.78512   4.79529   4.86112   4.88452   4.89616
 Alpha virt. eigenvalues --    4.91755   4.92991   4.94551   5.06227   5.07636
 Alpha virt. eigenvalues --    5.13548   5.15174   5.17587   5.17879
          Condensed to atoms (all electrons):
 Mulliken charges:
               1
     1  C    0.066735
     2  H    0.243081
     3  C   -0.359039
     4  H    0.212090
     5  C   -0.221849
     6  H    0.188738
     7  H    0.191458
     8  C   -0.279843
     9  C    0.767673
    10  O   -0.685160
    11  N   -0.997586
    12  H    0.430345
    13  H    0.427163
    14  C    0.110744
    15  H    0.284232
    16  N   -0.705909
    17  C    0.357448
    18  H    0.221953
    19  C    0.156658
    20  H    0.233208
    21  O   -0.818644
    22  H    0.497229
    23  C    0.088966
    24  H    0.230687
    25  O   -0.830093
    26  H    0.497414
    27  C    0.114716
    28  H    0.225593
    29  O   -0.703531
    30  C   -0.024241
    31  H    0.217889
    32  H    0.214573
    33  O   -0.756993
    34  P    1.587661
    35  O   -0.910006
    36  O   -0.860100
    37  O   -0.802476
    38  P    1.594861
    39  O   -0.904236
    40  O   -0.904676
    41  O   -0.773056
    42  C   -0.023911
    43  H    0.207218
    44  H    0.223922
    45  C    0.130032
    46  H    0.223157
    47  O   -0.712702
    48  C    0.092700
    49  H    0.234719
    50  O   -0.827373
    51  H    0.501351
    52  C    0.128420
    53  H    0.243819
    54  O   -0.825697
    55  H    0.497132
    56  C    0.413431
    57  H    0.240605
    58  N   -0.781791
    59  C    0.316033
    60  H    0.291429
    61  N   -0.638407
    62  C    0.097657
    63  C    0.591573
    64  N   -0.997658
    65  H    0.428408
    66  H    0.419437
    67  N   -0.642512
    68  C    0.259821
    69  H    0.235353
    70  N   -0.639529
    71  C    0.689684
 Sum of Mulliken charges =  -2.00000
 Mulliken charges with hydrogens summed into heavy atoms:
               1
     1  C    0.309816
     3  C   -0.146949
     5  C    0.158347
     8  C   -0.279843
     9  C    0.767673
    10  O   -0.685160
    11  N   -0.140078
    14  C    0.394976
    16  N   -0.705909
    17  C    0.579401
    19  C    0.389866
    21  O   -0.321415
    23  C    0.319653
    25  O   -0.332679
    27  C    0.340310
    29  O   -0.703531
    30  C    0.408221
    33  O   -0.756993
    34  P    1.587661
    35  O   -0.910006
    36  O   -0.860100
    37  O   -0.802476
    38  P    1.594861
    39  O   -0.904236
    40  O   -0.904676
    41  O   -0.773056
    42  C    0.407229
    45  C    0.353189
    47  O   -0.712702
    48  C    0.327419
    50  O   -0.326022
    52  C    0.372239
    54  O   -0.328565
    56  C    0.654036
    58  N   -0.781791
    59  C    0.607462
    61  N   -0.638407
    62  C    0.097657
    63  C    0.591573
    64  N   -0.149814
    67  N   -0.642512
    68  C    0.495174
    70  N   -0.639529
    71  C    0.689684
 Electronic spatial extent (au):  <R**2>=          41012.9919
 Charge=             -2.0000 electrons
 Dipole moment (field-independent basis, Debye):
    X=            -19.8099    Y=            -29.4039    Z=             -7.1927  Tot=             36.1767
 Quadrupole moment (field-independent basis, Debye-Ang):
   XX=           -463.4847   YY=           -399.3286   ZZ=           -280.5539
   XY=            -54.8572   XZ=            -10.9066   YZ=             -7.8072
 Traceless Quadrupole moment (field-independent basis, Debye-Ang):
   XX=            -82.3623   YY=            -18.2062   ZZ=            100.5685
   XY=            -54.8572   XZ=            -10.9066   YZ=             -7.8072
 Octapole moment (field-independent basis, Debye-Ang**2):
  XXX=           -879.3796  YYY=           -470.2938  ZZZ=            -50.9745  XYY=            -74.5055
  XXY=           -240.6691  XXZ=           -186.1545  XZZ=            -56.5431  YZZ=            -72.2810
  YYZ=            -58.4608  XYZ=             46.2474
 Hexadecapole moment (field-independent basis, Debye-Ang**3):
 XXXX=         -54576.7104 YYYY=         -11782.3310 ZZZZ=          -1952.3350 XXXY=          -1613.0078
 XXXZ=          -2689.9989 YYYX=             64.3519 YYYZ=            -28.3368 ZZZX=            218.4270
 ZZZY=            -43.4444 XXYY=          -8736.6382 XXZZ=          -7828.3568 YYZZ=          -1996.6175
 XXYZ=           -980.7758 YYXZ=           -153.0895 ZZXY=           -220.2916
 N-N= 6.055866265403D+03 E-N=-1.906961309005D+04  KE= 2.917181374582D+03
 D1PCM: PCM CHGder 1st derivatives, ID1Alg=3 FixD1E=F DoIter=F DoCFld=F I1PDM=0.
 Calling FoFJK, ICntrl=      2127 FMM=T ISym2X=0 I1Cent= 0 IOpClX= 0 NMat=1 NMatS=1 NMatT=0.
 ***** Axes restored to original set *****
 -------------------------------------------------------------------
 Center     Atomic                   Forces (Hartrees/Bohr)
 Number     Number              X              Y              Z
 -------------------------------------------------------------------
      1        6          -0.035426702   -0.042710904   -0.078292597
      2        1           0.009973896    0.004304548    0.003268857
      3        6          -0.091388576    0.114998865    0.074555916
      4        1           0.005952144    0.014200995   -0.003149773
      5        6           0.012224507   -0.001543906    0.036872141
      6        1          -0.068297533   -0.127447744   -0.034273474
      7        1           0.093714624    0.005400313   -0.116473280
      8        6           0.034869686    0.023027616    0.121937891
      9        6          -0.056234193    0.012321837   -0.063643387
     10        8           0.002924798    0.020575803    0.020111396
     11        7           0.046441115   -0.019303780    0.041415568
     12        1           0.006081398    0.014082878   -0.013094395
     13        1          -0.013256448   -0.005427776    0.007898047
     14        6           0.045152699   -0.011140284   -0.065524292
     15        1          -0.018590236   -0.012080489    0.016145076
     16        7           0.010954738    0.026673288    0.055597711
     17        6          -0.003830988   -0.026931742   -0.017465695
     18        1           0.016689724    0.007488902   -0.010318397
     19        6           0.005323806    0.011997508   -0.033552216
     20        1          -0.018919925   -0.008333235    0.029722662
     21        8           0.023217855   -0.000689690    0.007381242
     22        1          -0.001913176   -0.005502301    0.001630792
     23        6           0.000149322   -0.007541365    0.007658102
     24        1          -0.005963872    0.007572554   -0.003663204
     25        8           0.005025311   -0.014036135    0.006966932
     26        1          -0.003820659    0.004711258   -0.001901911
     27        6           0.001003587    0.000833192   -0.013145076
     28        1           0.004808603   -0.004154161    0.001990551
     29        8          -0.013965432    0.014305382    0.007172954
     30        6           0.006021023   -0.008046074    0.003924013
     31        1          -0.008998661   -0.001646843    0.004002259
     32        1          -0.003129360   -0.005149956   -0.004849526
     33        8           0.001698810    0.029960618    0.002016810
     34       15           0.014473252   -0.012901228   -0.023605716
     35        8          -0.012951155   -0.007740189   -0.002093725
     36        8           0.012317930    0.016660203    0.016814441
     37        8          -0.013173471   -0.008788855    0.001141311
     38       15           0.034478814   -0.016286481    0.019049598
     39        8           0.002462332    0.001015047   -0.007473490
     40        8          -0.027810125    0.006300873    0.004572776
     41        8          -0.015521191    0.022658232    0.011091932
     42        6           0.000652089   -0.018052031   -0.009394535
     43        1           0.004947393    0.006218911   -0.000890556
     44        1           0.007520950   -0.002055642    0.004237920
     45        6          -0.000798678    0.020324930    0.003127688
     46        1          -0.003343622   -0.003352262   -0.000176190
     47        8           0.015929186    0.002744777   -0.002971752
     48        6          -0.002657304   -0.024204946   -0.010245495
     49        1           0.009664247    0.008138390    0.002832622
     50        8          -0.021113335   -0.014950871    0.000570523
     51        1           0.003196920    0.006749539   -0.000350209
     52        6           0.013084219    0.013357242    0.011446093
     53        1           0.011854371    0.002568681    0.001778055
     54        8          -0.016395223   -0.012714568   -0.005901339
     55        1           0.006324120    0.004883748   -0.002559846
     56        6          -0.011791916   -0.008306980    0.018836231
     57        1          -0.010598964    0.003956378   -0.012750704
     58        7          -0.000123712   -0.001753907   -0.000494888
     59        6          -0.013139044    0.006556957    0.045039354
     60        1          -0.008070641    0.010466352   -0.014156871
     61        7           0.031323580   -0.000500308   -0.023512370
     62        6          -0.011507220    0.004880407    0.005025583
     63        6           0.072325615    0.023997543   -0.015450294
     64        7          -0.055634561   -0.024142949    0.013637967
     65        1          -0.000608162    0.007032773   -0.011369389
     66        1           0.011413847   -0.000452227    0.011485594
     67        7           0.009154322   -0.021318028   -0.015183658
     68        6          -0.023503511    0.008784799   -0.032274483
     69        1           0.012684954   -0.003677214    0.019975392
     70        7          -0.030169653   -0.014298935    0.010214887
     71        6           0.016611463    0.007432666   -0.000944152
 -------------------------------------------------------------------
 Cartesian Forces:  Max     0.127447744 RMS     0.027452510

 GradGradGradGradGradGradGradGradGradGradGradGradGradGradGradGradGradGrad
 Berny optimization.
 FormGI is forming the generalized inverse of G from B-inverse, IUseBI=4.
 GSVD:  received Info=                   1 from GESDD.
 Internal  Forces:  Max     0.149070483 RMS     0.017318366
 Search for a local minimum.
 Step number   1 out of a maximum of  411
 All quantities printed in internal units (Hartrees-Bohrs-Radians)
 Mixed Optimization -- RFO/linear search
 Second derivative matrix not updated -- first step.
 ITU=  0
     Eigenvalues ---    0.00449   0.00504   0.00580   0.00618   0.00626
     Eigenvalues ---    0.00715   0.00880   0.00989   0.01009   0.01056
     Eigenvalues ---    0.01118   0.01341   0.01408   0.01485   0.01507
     Eigenvalues ---    0.01533   0.01536   0.01692   0.01727   0.01999
     Eigenvalues ---    0.02057   0.02094   0.02128   0.02178   0.02205
     Eigenvalues ---    0.02233   0.02305   0.02387   0.02458   0.02491
     Eigenvalues ---    0.02502   0.02516   0.02555   0.02596   0.02668
     Eigenvalues ---    0.02696   0.02868   0.03074   0.03127   0.03130
     Eigenvalues ---    0.03441   0.03511   0.03548   0.03657   0.03860
     Eigenvalues ---    0.03912   0.04115   0.04191   0.04583   0.04973
     Eigenvalues ---    0.05137   0.05298   0.05322   0.05383   0.05449
     Eigenvalues ---    0.05472   0.05587   0.05617   0.05674   0.05901
     Eigenvalues ---    0.05911   0.05952   0.05985   0.06100   0.06361
     Eigenvalues ---    0.06439   0.07124   0.07521   0.07957   0.07984
     Eigenvalues ---    0.08131   0.08216   0.09737   0.09936   0.11088
     Eigenvalues ---    0.11189   0.11650   0.12392   0.12773   0.13149
     Eigenvalues ---    0.13573   0.13654   0.14499   0.14993   0.15311
     Eigenvalues ---    0.15341   0.15381   0.15482   0.15499   0.15691
     Eigenvalues ---    0.15697   0.15914   0.16000   0.16000   0.16000
     Eigenvalues ---    0.16000   0.16000   0.16000   0.16000   0.16000
     Eigenvalues ---    0.16487   0.16764   0.16859   0.17242   0.17677
     Eigenvalues ---    0.18351   0.18582   0.19889   0.20037   0.21560
     Eigenvalues ---    0.21819   0.21964   0.21973   0.22146   0.23273
     Eigenvalues ---    0.23519   0.23638   0.23669   0.24890   0.24896
     Eigenvalues ---    0.24918   0.24964   0.24987   0.24992   0.24997
     Eigenvalues ---    0.24999   0.25000   0.25000   0.25000   0.25000
     Eigenvalues ---    0.25000   0.25000   0.26453   0.26503   0.27975
     Eigenvalues ---    0.28145   0.28938   0.29267   0.31233   0.31290
     Eigenvalues ---    0.31974   0.34112   0.34762   0.34779   0.34789
     Eigenvalues ---    0.34794   0.34797   0.34812   0.34816   0.34839
     Eigenvalues ---    0.34840   0.34842   0.34870   0.34884   0.35948
[...]
   D51        0.61418   0.00030   0.00094   0.00273   0.00366   0.61784
   D52       -2.70764   0.00022  -0.00546   0.00547  -0.00002  -2.70766
   D53        1.52122   0.00037  -0.00375   0.00528   0.00151   1.52274
   D54       -0.49760   0.00001  -0.00599   0.00450  -0.00152  -0.49912
   D55        1.39638  -0.00034  -0.00380   0.05552   0.05171   1.44809
   D56       -0.78021  -0.00000  -0.00168   0.05802   0.05634  -0.72388
   D57       -2.88613   0.00011  -0.00147   0.05534   0.05388  -2.83225
   D58       -2.59359   0.00004   0.00557  -0.01069  -0.00513  -2.59872
   D59        1.62291  -0.00003   0.00845  -0.01276  -0.00431   1.61859
   D60       -0.50279   0.00001   0.00482  -0.00860  -0.00379  -0.50658
   D61       -0.54475  -0.00011   0.00001  -0.01100  -0.01099  -0.55574
   D62       -2.61144  -0.00017   0.00289  -0.01306  -0.01017  -2.62162
   D63        1.54604  -0.00013  -0.00073  -0.00890  -0.00965   1.53639
   D64        1.57891  -0.00007   0.00175  -0.01027  -0.00852   1.57038
   D65       -0.48779  -0.00013   0.00463  -0.01234  -0.00771  -0.49549
   D66       -2.61349  -0.00009   0.00101  -0.00818  -0.00718  -2.62067
   D67       -0.96281  -0.00006  -0.01121  -0.01759  -0.02881  -0.99161
   D68       -3.08918  -0.00024  -0.01001  -0.01950  -0.02951  -3.11869
   D69        1.07018  -0.00039  -0.00991  -0.02091  -0.03081   1.03937
   D70        2.29168  -0.00007  -0.00744   0.00813   0.00070   2.29238
   D71        0.22974  -0.00005  -0.00852   0.01094   0.00243   0.23217
   D72       -1.87580   0.00001  -0.00601   0.00474  -0.00126  -1.87706
   D73       -1.90466  -0.00015  -0.00711   0.01010   0.00299  -1.90167
   D74        2.31658  -0.00012  -0.00819   0.01291   0.00472   2.32130
   D75        0.21104  -0.00006  -0.00569   0.00672   0.00103   0.21207
   D76        0.15489  -0.00017  -0.00760   0.01146   0.00386   0.15874
   D77       -1.90706  -0.00015  -0.00868   0.01427   0.00559  -1.90147
   D78        2.27059  -0.00009  -0.00618   0.00807   0.00190   2.27248
   D79        0.16789   0.00005   0.00939  -0.00972  -0.00032   0.16757
   D80       -1.88794  -0.00012   0.00701  -0.00636   0.00065  -1.88729
   D81        2.34532  -0.00041   0.00565  -0.00249   0.00315   2.34848
   D82        3.07647   0.00022  -0.00662   0.01514   0.00853   3.08499
   D83       -1.11492   0.00024  -0.00776   0.01407   0.00633  -1.10860
   D84        0.99078  -0.00040  -0.01088   0.01693   0.00607   0.99684
   D85       -1.07961   0.00019  -0.00504   0.01294   0.00790  -1.07171
   D86        1.01218   0.00021  -0.00618   0.01188   0.00570   1.01788
   D87        3.11788  -0.00043  -0.00930   0.01474   0.00544   3.12332
   D88        0.98958   0.00015  -0.00477   0.01101   0.00623   0.99581
   D89        3.08137   0.00017  -0.00591   0.00995   0.00403   3.08540
   D90       -1.09611  -0.00047  -0.00902   0.01281   0.00377  -1.09234
   D91        2.97028   0.00046  -0.01326   0.00686  -0.00639   2.96389
   D92        0.88494   0.00010  -0.01596   0.00888  -0.00708   0.87786
   D93       -1.21061  -0.00013  -0.01694   0.01011  -0.00684  -1.21745
   D94       -0.41161  -0.00054   0.16081  -0.08657   0.07423  -0.33738
   D95       -2.72195  -0.00126   0.15878  -0.08564   0.07316  -2.64879
   D96        1.58445  -0.00078   0.16544  -0.08647   0.07895   1.66340
   D97       -2.97196   0.00064   0.10706   0.01826   0.12529  -2.84666
   D98       -0.95203   0.00078   0.10635   0.01966   0.12601  -0.82602
   D99        1.37026   0.00005   0.10449   0.01919   0.12371   1.49397
   D100      -2.89161   0.00024  -0.03037   0.01679  -0.01359  -2.90519
   D101      -0.59053   0.00053  -0.03276   0.01707  -0.01569  -0.60622
   D102       1.38009  -0.00038  -0.03124   0.01704  -0.01420   1.36589
   D103       1.03178   0.00074   0.01926  -0.02431  -0.00506   1.02673
   D104      -0.92121   0.00018   0.02084  -0.02545  -0.00461  -0.92582
   D105       3.05216  -0.00064   0.02095  -0.02339  -0.00245   3.04971
   D106       0.43217   0.00008  -0.00956  -0.01140  -0.02095   0.41122
   D107      -1.66074   0.00004  -0.00965  -0.01350  -0.02316  -1.68389
   D108       2.54290   0.00031  -0.00830  -0.01457  -0.02286   2.52003
   D109       0.91844   0.00001  -0.00209   0.00662   0.00452   0.92296
   D110       2.98227   0.00002  -0.00279   0.00769   0.00490   2.98717
   D111      -1.25374   0.00018  -0.00204   0.00916   0.00711  -1.24664
   D112       3.03720  -0.00005  -0.00182   0.00506   0.00324   3.04044
   D113      -1.18216  -0.00003  -0.00252   0.00613   0.00362  -1.17853
   D114       0.86501   0.00013  -0.00177   0.00761   0.00582   0.87084
   D115      -1.15467   0.00017  -0.00108   0.00710   0.00602  -1.14864
   D116       0.90916   0.00018  -0.00178   0.00817   0.00640   0.91557
   D117       2.95634   0.00034  -0.00104   0.00965   0.00861   2.96494
   D118       2.15519   0.00034  -0.00433   0.00413  -0.00019   2.15499
   D119      -2.05645   0.00021  -0.00517   0.00509  -0.00008  -2.05654
   D120       0.02266  -0.00007  -0.00573   0.00568  -0.00006   0.02261
   D121       0.40739  -0.00031   0.00169  -0.00540  -0.00371   0.40369
   D122       2.49498   0.00001   0.00358  -0.00369  -0.00012   2.49486
   D123      -1.68725  -0.00053   0.00180  -0.00616  -0.00436  -1.69162
   D124      -1.75777  -0.00001   0.00193  -0.00188   0.00005  -1.75773
   D125       0.32981   0.00031   0.00381  -0.00018   0.00363   0.33345
   D126       2.43076  -0.00023   0.00204  -0.00265  -0.00061   2.43015
   D127       2.46269   0.00029   0.00259  -0.00142   0.00116   2.46386
   D128      -1.73291   0.00061   0.00447   0.00028   0.00475  -1.72816
   D129       0.36805   0.00007   0.00269  -0.00218   0.00051   0.36855
   D130      -0.40813   0.00013   0.00639  -0.00666  -0.00027  -0.40840
   D131       1.66833   0.00008   0.00717  -0.00778  -0.00061   1.66772
   D132      -2.57136   0.00025   0.00812  -0.00785   0.00028  -2.57108
   D133       0.75568  -0.00009  -0.01249  -0.02567  -0.03817   0.71751
   D134       2.90432  -0.00003  -0.01111  -0.02430  -0.03541   2.86891
   D135      -1.24871  -0.00020  -0.01214  -0.02423  -0.03636  -1.28508
   D136       1.43252   0.00012   0.00154  -0.00081   0.00073   1.43325
   D137      -2.74252   0.00015   0.00220  -0.00122   0.00098  -2.74153
   D138      -0.58811  -0.00007   0.00082  -0.00152  -0.00070  -0.58881
   D139      -0.66362  -0.00001   0.00152  -0.00155  -0.00003  -0.66365
   D140       1.44454   0.00002   0.00218  -0.00196   0.00022   1.44475
   D141      -2.68424  -0.00020   0.00080  -0.00226  -0.00147  -2.68571
   D142      -2.73147   0.00000   0.00223  -0.00173   0.00049  -2.73098
   D143      -0.62331   0.00003   0.00289  -0.00214   0.00074  -0.62257
   D144       1.53109  -0.00018   0.00151  -0.00245  -0.00094   1.53015
   D145       0.66395  -0.00003  -0.00484   0.00800   0.00315   0.66710
   D146       2.79212  -0.00011  -0.00413   0.00778   0.00365   2.79577
   D147      -1.37703   0.00017  -0.00456   0.00926   0.00470  -1.37232
   D148       0.61934  -0.00008  -0.00419   0.00494   0.00076   0.62010
   D149      -1.45995  -0.00007  -0.00541   0.00646   0.00106  -1.45889
   D150       2.71143   0.00001  -0.00482   0.00729   0.00247   2.71390
   D151      -1.40166  -0.00003  -0.00534   0.00472  -0.00061  -1.40227
   D152       2.80224  -0.00002  -0.00655   0.00624  -0.00032   2.80192
   D153       0.69044   0.00006  -0.00597   0.00706   0.00110   0.69153
   D154       2.78786  -0.00025  -0.00515   0.00376  -0.00138   2.78648
   D155       0.70858  -0.00024  -0.00636   0.00528  -0.00109   0.70749
   D156      -1.40323  -0.00016  -0.00578   0.00611   0.00033  -1.40290
   D157       0.98157   0.00004  -0.00070   0.01976   0.01907   1.00064
   D158      -2.10751   0.00003  -0.00690   0.02350   0.01660  -2.09091
   D159      -1.06672  -0.00005  -0.00048   0.01905   0.01856  -1.04817
   D160       2.12738  -0.00006  -0.00669   0.02279   0.01609   2.14347
   D161       3.06914   0.00012   0.00031   0.01957   0.01988   3.08903
   D162      -0.01994   0.00011  -0.00589   0.02331   0.01742  -0.00253
   D163       0.02946  -0.00001  -0.00299   0.00049  -0.00250   0.02696
   D164      -3.10396  -0.00017  -0.00237   0.00894   0.00657  -3.09739
   D165       3.12772  -0.00000   0.00214  -0.00262  -0.00048   3.12725
   D166      -0.00569  -0.00016   0.00277   0.00583   0.00859   0.00290
   D167       3.10446   0.00020   0.00286  -0.00362  -0.00076   3.10369
   D168      -0.03635  -0.00003   0.00281  -0.00488  -0.00207  -0.03842
   D169       0.00662   0.00019  -0.00230  -0.00054  -0.00284   0.00379
   D170      -3.13418  -0.00004  -0.00235  -0.00180  -0.00414  -3.13832
   D171       0.00206   0.00005  -0.00191  -0.00826  -0.01017  -0.00811
   D172      -3.13097  -0.00011  -0.00126   0.00058  -0.00068  -3.13166
   D173      -3.14082   0.00001   0.00050   0.00598   0.00648  -3.13434
   D174       0.00241   0.00007   0.00033   0.00770   0.00803   0.01044
   D175      -0.02726  -0.00001  -0.00146   0.00128  -0.00018  -0.02745
   D176      -3.13849   0.00002   0.00018   0.00285   0.00303  -3.13546
   D177       3.11262  -0.00007  -0.00129  -0.00052  -0.00181   3.11082
   D178       0.00139  -0.00004   0.00036   0.00105   0.00141   0.00280
   D179      -0.00579  -0.00017   0.00129  -0.00437  -0.00308  -0.00887
   D180       3.13504   0.00006   0.00134  -0.00316  -0.00182   3.13323
   D181       3.13714  -0.00011   0.00115  -0.00296  -0.00181   3.13533
   D182      -0.00521   0.00011   0.00120  -0.00175  -0.00055  -0.00576
   D183       0.28475   0.00019   0.01199   0.01054   0.02259   0.30734
   D184       2.91997  -0.00015  -0.00757   0.00070  -0.00693   2.91304
   D185      -2.88731   0.00014   0.01032   0.00898   0.01936  -2.86796
   D186      -0.25209  -0.00020  -0.00924  -0.00086  -0.01016  -0.26225
   D187       0.00497  -0.00012  -0.00141  -0.00112  -0.00252   0.00245
   D188      -3.10750  -0.00009   0.00019   0.00036   0.00055  -3.10696
   D189       3.14101  -0.00020   0.00090  -0.00368  -0.00279   3.13822
   D190      -0.00933   0.00025   0.00115   0.00195   0.00311  -0.00623
   D191       0.00564  -0.00019   0.00029  -0.00237  -0.00209   0.00355
   D192       3.13843   0.00027   0.00055   0.00330   0.00384  -3.14092
   D193      -3.14053   0.00027  -0.00142   0.00373   0.00231  -3.13823
   D194       0.00200  -0.00001  -0.00149   0.00224   0.00075   0.00275
         Item               Value     Threshold  Converged?
 Maximum Force            0.002597     0.000450     NO 
 RMS     Force            0.000401     0.000300     NO 
 Maximum Displacement     0.846050     0.001800     NO 
 RMS     Displacement     0.209875     0.001200     NO 
 Predicted change in Energy=-2.413688D-04
 GradGradGradGradGradGradGradGradGradGradGradGradGradGradGradGradGradGrad

 Stoichiometry    C21H27N7O14P2(2-)
 Framework group  C1[X(C21H27N7O14P2)]
 Deg. of freedom   207
 Full point group                 C1      NOp   1
 Largest Abelian subgroup         C1      NOp   1
 Largest concise Abelian subgroup C1      NOp   1
                         Standard orientation:                         
 ---------------------------------------------------------------------
 Center     Atomic      Atomic             Coordinates (Angstroms)
 Number     Number       Type             X           Y           Z
 ---------------------------------------------------------------------
      1          6           0        6.762389   -2.939974   -0.698949
      2          1           0        6.475657   -3.949220   -0.923142
      3          6           0        7.964483   -2.470974   -0.972554
      4          1           0        8.676940   -3.126141   -1.440379
      5          6           0        8.387650   -1.059768   -0.658886
      6          1           0        9.178610   -1.056993    0.087919
      7          1           0        8.821204   -0.597318   -1.542244
      8          6           0        7.195980   -0.256503   -0.181657
      9          6           0        7.434890    1.183537    0.056542
     10          8           0        8.585157    1.607419    0.080719
     11          7           0        6.400831    2.013842    0.271319
     12          1           0        5.456012    1.779587    0.055594
     13          1           0        6.612672    2.986378    0.347062
     14          6           0        6.013692   -0.823778    0.072040
     15          1           0        5.182450   -0.250771    0.426263
     16          7           0        5.765079   -2.170072   -0.076412
     17          6           0        4.423076   -2.672127   -0.047704
     18          1           0        4.486452   -3.740866   -0.200341
     19          6           0        3.614922   -2.415731    1.225068
     20          1           0        3.774067   -1.406927    1.579839
     21          8           0        3.887647   -3.340295    2.243267
     22          1           0        4.669871   -3.064320    2.706745
     23          6           0        2.170857   -2.538547    0.730353
     24          1           0        1.507204   -1.899522    1.291096
     25          8           0        1.644307   -3.836793    0.873968
     26          1           0        2.187640   -4.473145    0.420918
     27          6           0        2.268070   -2.102751   -0.744081
     28          1           0        1.757710   -2.832563   -1.361491
     29          8           0        3.650127   -2.087913   -1.074131
     30          6           0        1.679042   -0.746559   -1.057358
     31          1           0        1.848877   -0.513670   -2.098335
     32          1           0        0.613637   -0.755514   -0.865521
     33          8           0        2.314761    0.225751   -0.242658
     34         15           0        2.122852    1.800997   -0.459618
     35          8           0        1.620486    2.085632   -1.824059
     36          8           0        3.360637    2.455357    0.028446
     37          8           0        0.932950    2.059819    0.614750
     38         15           0       -0.094901    3.300742    0.783258
     39          8           0       -0.711579    3.125981    2.119430
     40          8           0        0.569165    4.573021    0.422639
     41          8           0       -1.177593    3.011656   -0.367776
     42          6           0       -1.924274    1.807340   -0.395983
     43          1           0       -1.982237    1.363800    0.588613
     44          1           0       -1.443775    1.109486   -1.067362
     45          6           0       -3.315600    2.135245   -0.906405
     46          1           0       -3.242170    2.669655   -1.844122
     47          8           0       -3.991196    0.898449   -1.129029
     48          6           0       -4.171481    2.920151    0.092921
     49          1           0       -3.569351    3.455270    0.809330
     50          8           0       -4.997181    3.886985   -0.517452
     51          1           0       -5.384621    3.549346   -1.318471
     52          6           0       -4.996758    1.814808    0.752535
     53          1           0       -4.412574    1.344366    1.530538
     54          8           0       -6.194829    2.243570    1.332077
     55          1           0       -6.573958    2.911458    0.768943
     56          6           0       -5.191338    0.832890   -0.402182
     57          1           0       -6.026362    1.134370   -1.016823
     58          7           0       -5.436830   -0.532228   -0.013286
     59          6           0       -4.606523   -1.336561    0.724662
     60          1           0       -3.675062   -0.969405    1.101124
     61          7           0       -5.046034   -2.530819    0.885962
     62          6           0       -6.262079   -2.537216    0.221715
     63          6           0       -7.236202   -3.521567    0.028195
     64          7           0       -7.108053   -4.774421    0.494715
     65          1           0       -6.438261   -4.953228    1.210487
     66          1           0       -7.921206   -5.351053    0.489977
     67          7           0       -8.319951   -3.209380   -0.682274
     68          6           0       -8.422380   -1.981590   -1.174460
     69          1           0       -9.314166   -1.787775   -1.740633
     70          7           0       -7.583359   -0.977061   -1.058826
     71          6           0       -6.509943   -1.308577   -0.343829
 ---------------------------------------------------------------------
 Rotational constants (GHZ):      0.1086811      0.0293654      0.0242722
 Standard basis: 6-31G(d) (6D, 7F)
 There are   722 symmetry adapted cartesian basis functions of A   symmetry.
 There are   722 symmetry adapted basis functions of A   symmetry.
   722 basis functions,  1388 primitive gaussians,   722 cartesian basis functions
   173 alpha electrons      173 beta electrons
       nuclear repulsion energy      6046.0462584797 Hartrees.
 NAtoms=   71 NActive=   71 NUniq=   71 SFac= 1.00D+00 NAtFMM=   60 NAOKFM=T Big=T
 Integral buffers will be    131072 words long.
 Raffenetti 1 integral format.
 Two-electron integral symmetry is turned on.
 ------------------------------------------------------------------------------
 Polarizable Continuum Model (PCM)
 =================================
 Model                : PCM (using non-symmetric T matrix).
 Atomic radii         : SMD-Coulomb.
 Polarization charges : Total charges.
 Charge compensation  : None.
 Solution method      : On-the-fly selection.
 Cavity type          : VdW (van der Waals Surface) (Alpha=1.000).
 Cavity algorithm     : GePol (No added spheres)
                        Default sphere list used, NSphG=   71.
                        Lebedev-Laikov grids with approx.  5.0 points / Ang**2.
                        Smoothing algorithm: York/Karplus (Gamma=1.0000).
                        Polarization charges: spherical gaussians, with
                                              point-specific exponents (IZeta= 3).
                        Self-potential: point-specific (ISelfS= 7).
                        Self-field    : sphere-specific E.n sum rule (ISelfD= 2).
 1st derivatives      : Analytical E(r).r(x)/FMM algorithm (CHGder, D1EAlg=3).
                        Cavity 1st derivative terms included.
 Solvent              : Water, Eps=  78.355300 Eps(inf)=   1.777849
 ------------------------------------------------------------------------------
 ------------------------------------------------------------------------------
 Atomic radii for non-electrostatic terms: SMD-CDS.
 ------------------------------------------------------------------------------
 Nuclear repulsion after PCM non-electrostatic terms =     6046.0643242752 Hartrees.
 One-electron integrals computed using PRISM.
 NBasis=   722 RedAO= T EigKep=  6.83D-04  NBF=   722
 NBsUse=   722 1.00D-06 EigRej= -1.00D+00 NBFU=   722
 Initial guess from the checkpoint file:  "nah.chk"
 B after Tr=     0.000000   -0.000000    0.000000
         Rot=    0.999993    0.000573    0.001608    0.003368 Ang=   0.43 deg.
 ExpMin= 9.98D-02 ExpMax= 1.94D+04 ExpMxC= 2.91D+03 IAcc=2 IRadAn=         4 AccDes= 0.00D+00
 Harris functional with IExCor=  205 and IRadAn=       4 diagonalized for initial guess.
 HarFok:  IExCor=  205 AccDes= 0.00D+00 IRadAn=         4 IDoV= 1 UseB2=F ITyADJ=14
 ICtDFT=  3500011 ScaDFX=  1.000000  1.000000  1.000000  1.000000
 FoFCou: FMM=F IPFlag=           0 FMFlag=      100000 FMFlg1=        2001
         NFxFlg=           0 DoJE=T BraDBF=F KetDBF=T FulRan=T
         wScrn=  0.000000 ICntrl=     500 IOpCl=  0 I1Cent=   200000004 NGrid=           0
         NMat0=    1 NMatS0=      1 NMatT0=    0 NMatD0=    1 NMtDS0=    0 NMtDT0=    0
 Petite list used in FoFCou.
 Requested convergence on RMS density matrix=1.00D-08 within 128 cycles.
 Requested convergence on MAX density matrix=1.00D-06.
 Requested convergence on             energy=1.00D-06.
 No special actions if energy rises.
 Inv3:  Mode=1 IEnd=    76901907.
