 Entering Gaussian System, Link 0=/software/sse/easybuild/prefix/software/Gaussian/09.E.01-avx-nsc1-bdist/g09/g09.orig
 Input=nah2.wrap
 Output=nah2.log
 Initial command:
 /software/sse/easybuild/prefix/software/Gaussian/09.E.01-avx-nsc1-bdist/g09/l1.exe "/scratch/local/Gau-14398.inp" -scrdir="/scratch/local/"
 Entering Link 1 = /software/sse/easybuild/prefix/software/Gaussian/09.E.01-avx-nsc1-bdist/g09/l1.exe PID=     14399.
  
 Copyright (c) 1988,1990,1992,1993,1995,1998,2003,2009,2015,
            Gaussian, Inc.  All Rights Reserved.
  
 This is part of the Gaussian(R) 09 program.  It is based on
 the Gaussian(R) 03 system (copyright 2003, Gaussian, Inc.),
 the Gaussian(R) 98 system (copyright 1998, Gaussian, Inc.),
 the Gaussian(R) 94 system (copyright 1995, Gaussian, Inc.),
 the Gaussian 92(TM) system (copyright 1992, Gaussian, Inc.),
 the Gaussian 90(TM) system (copyright 1990, Gaussian, Inc.),
 the Gaussian 88(TM) system (copyright 1988, Gaussian, Inc.),
 the Gaussian 86(TM) system (copyright 1986, Carnegie Mellon
 University), and the Gaussian 82(TM) system (copyright 1983,
 Carnegie Mellon University). Gaussian is a federally registered
 trademark of Gaussian, Inc.
  
 This software contains proprietary and confidential information,
 including trade secrets, belonging to Gaussian, Inc.
  
 This software is provided under written license and may be
 used, copied, transmitted, or stored only in accord with that
 written license.
  
 The following legend is applicable only to US Government
 contracts under FAR:
  
                    RESTRICTED RIGHTS LEGEND
  
 Use, reproduction and disclosure by the US Government is
 subject to restrictions as set forth in subparagraphs (a)
 and (c) of the Commercial Computer Software - Restricted
 Rights clause in FAR 52.227-19.
  
 Gaussian, Inc.
 340 Quinnipiac St., Bldg. 40, Wallingford CT 06492
  
  
 ---------------------------------------------------------------
 Warning -- This program may not be used in any manner that
 competes with the business of Gaussian, Inc. or will provide
 assistance to any competitor of Gaussian, Inc.  The licensee
 of this program is prohibited from giving any competitor of
 Gaussian, Inc. access to this program.  By using this program,
 the user acknowledges that Gaussian, Inc. is engaged in the
 business of creating and licensing software in the field of
 computational chemistry and represents and warrants to the
 licensee that it is not a competitor of Gaussian, Inc. and that
 it will not use this program in any manner prohibited above.
 ---------------------------------------------------------------
  

 Cite this work as:
 Gaussian 09, Revision E.01,
 M. J. Frisch, G. W. Trucks, H. B. Schlegel, G. E. Scuseria, 
 M. A. Robb, J. R. Cheeseman, G. Scalmani, V. Barone, B. Mennucci, 
 G. A. Petersson, H. Nakatsuji, M. Caricato, X. Li, H. P. Hratchian, 
 A. F. Izmaylov, J. Bloino, G. Zheng, J. L. Sonnenberg, M. Hada, 
 M. Ehara, K. Toyota, R. Fukuda, J. Hasegawa, M. Ishida, T. Nakajima, 
 Y. Honda, O. Kitao, H. Nakai, T. Vreven, J. A. Montgomery, Jr., 
 J. E. Peralta, F. Ogliaro, M. Bearpark, J. J. Heyd, E. Brothers, 
 K. N. Kudin, V. N. Staroverov, T. Keith, R. Kobayashi, J. Normand, 
 K. Raghavachari, A. Rendell, J. C. Burant, S. S. Iyengar, J. Tomasi, 
 M. Cossi, N. Rega, J. M. Millam, M. Klene, J. E. Knox, J. B. Cross, 
 V. Bakken, C. Adamo, J. Jaramillo, R. Gomperts, R. E. Stratmann, 
 O. Yazyev, A. J. Austin, R. Cammi, C. Pomelli, J. W. Ochterski, 
 R. L. Martin, K. Morokuma, V. G. Zakrzewski, G. A. Voth, 
 P. Salvador, J. J. Dannenberg, S. Dapprich, A. D. Daniels, 
 O. Farkas, J. B. Foresman, J. V. Ortiz, J. Cioslowski, 
 and D. J. Fox, Gaussian, Inc., Wallingford CT, 2013.
 
 ******************************************
 Gaussian 09:  ES64L-G09RevE.01 30-Nov-2015
                12-Dec-2022 
 ******************************************
 %nproc=16
 Will use up to   16 processors via shared memory.
 %oldchk=nah
 %chk=nah2
 Copying data from "nah.chk" to current chk file "nah2.chk".
 ----------------------------------
 #HF/6-31G* scrf=smd opt geom=check
 ----------------------------------
 1/14=-1,18=20,19=15,29=2,38=1/1,3;
 2/9=110,12=2,40=1/2;
 3/5=1,6=6,7=1,11=9,14=-4,16=1,25=1,30=1,70=32201,71=1,72=1/1,2,3;
 4//1;
 5/5=2,38=5/2;
 6/7=2,8=2,9=2,10=2,28=1/1;
 7//1,2,3,16;
 1/14=-1,18=20,19=15/3(2);
 2/9=110/2;
 99//99;
 2/9=110/2;
 3/5=1,6=6,7=1,11=9,14=-2,16=1,25=1,30=1,70=32205,71=1/1,2,3;
 4/5=5,16=3,69=1/1;
 5/5=2,38=5/2;
 7//1,2,3,16;
 1/14=-1,18=20,19=15/3(-5);
 2/9=110/2;
 6/7=2,8=2,9=2,10=2,19=2,28=1/1;
 99/9=1/99;
 ---------------------
 remark line goes here
 ---------------------
 Structure from the checkpoint file:  "nah2.chk"
 Charge = -2 Multiplicity = 1
 Redundant internal coordinates found in file.
 C,0,6.8695810756,-2.8290953646,-0.8102004432
 H,0,6.6106503018,-3.8578377104,-0.9704410331
 C,0,8.0036809048,-2.3129720484,-1.2424903657
 H,0,8.687443385,-2.9500087992,-1.7739084501
 C,0,8.3882461172,-0.8736267331,-1.02415743
 H,0,9.259527712,-0.8076746755,-0.3766543023
 H,0,8.691221407,-0.4229820431,-1.9658656159
 C,0,7.2207310688,-0.1123651564,-0.434493207
 C,0,7.4104195894,1.3454701604,-0.2702947164
 O,0,8.5333649923,1.8234160243,-0.3915108476
 N,0,6.3651931268,2.1315096159,0.0367116517
 H,0,5.4155233708,1.8481463541,-0.0779071394
 H,0,6.5341338415,3.1156545649,0.0577938723
 C,0,6.1086925887,-0.7254500873,-0.021660286
 H,0,5.2976146143,-0.1776760044,0.4110242147
 N,0,5.9158128043,-2.0886378898,-0.0907546625
 C,0,4.6087856118,-2.6481800562,0.085883837
 H,0,4.7123095079,-3.7217873721,-0.0019968122
 C,0,3.896836225,-2.34549186,1.4052643238
 H,0,4.0323566837,-1.3116596163,1.6888861275
 O,0,4.2988280233,-3.1927027973,2.4479719977
 H,0,5.1267555476,-2.8809417341,2.7946059948
 C,0,2.4236189442,-2.562622731,1.0426463395
 H,0,1.7799838291,-1.913863201,1.6151578168
 O,0,1.969570571,-3.8672974622,1.3122991283
 H,0,2.5194876161,-4.5098551897,0.8766483157
 C,0,2.3785607628,-2.2244336635,-0.4598033254
 H,0,1.8554371922,-3.0158719446,-0.9835464683
 O,0,3.7253739194,-2.1702341156,-0.9060085948
 C,0,1.7024814991,-0.9175305867,-0.8052619932
 H,0,1.7804123784,-0.7414495425,-1.8680394052
 H,0,0.6563791168,-0.9586429856,-0.5284452789
 O,0,2.3554273046,0.1274032943,-0.1026176609
 P,0,2.071933098,1.6773672177,-0.3856013283
 O,0,1.5390354196,1.8751516833,-1.7543132726
 O,0,3.2774900074,2.4189978128,0.0560984691
 O,0,0.8760337266,1.9081951214,0.6890445883
 P,0,-0.1187872078,3.1699257774,0.8989083542
 O,0,-0.7475972259,2.9661013075,2.2248214188
 O,0,0.5817306293,4.4349838277,0.5842241484
 O,0,-1.2007279121,2.946849045,-0.2668148531
 C,0,-1.9794461935,1.7647499547,-0.3341210193
 H,0,-2.0721204638,1.3069433596,0.6412732911
 H,0,-1.5012061644,1.0646930923,-1.00516733
 C,0,-3.349446871,2.1324551078,-0.8724794636
 H,0,-3.2425644565,2.6830009528,-1.7975759885
 O,0,-4.0396379456,0.9114718091,-1.1343554049
 C,0,-4.21779579,2.9138247045,0.1189808315
 H,0,-3.6250577973,3.4248673607,0.8606462495
 O,0,-5.0062272046,3.9086367065,-0.4956720108
 H,0,-5.4042658455,3.5840122735,-1.2973003297
 C,0,-5.0786571642,1.8106678585,0.73698291
 H,0,-4.5217816476,1.3163476329,1.5202745981
 O,0,-6.2839565498,2.2477850849,1.2950960823
 H,0,-6.6379053347,2.934521838,0.7384689837
 C,0,-5.258744626,0.8526795551,-0.4400369198
 H,0,-6.0729047538,1.1783220471,-1.0703886598
 N,0,-5.5338040832,-0.5160353375,-0.0842729364
 C,0,-4.7243509345,-1.3525634358,0.6410724894
 H,0,-3.7900476509,-1.010806906,1.0339769508
 N,0,-5.1913075562,-2.5394125261,0.7786384395
 C,0,-6.3985289311,-2.5094935457,0.0991121706
 C,0,-7.3880252653,-3.4718268804,-0.127195642
 N,0,-7.2882170098,-4.734420866,0.3145893363
 H,0,-6.6189642999,-4.9476844414,1.0207457851
 H,0,-8.1074429706,-5.3009506632,0.2837789556
 N,0,-8.4584664068,-3.124741553,-0.8414684703
 C,0,-8.5322552707,-1.8851032672,-1.3087688279
 H,0,-9.4155738259,-1.6615046845,-1.8772591277
 N,0,-7.6772073256,-0.8984164698,-1.1614403938
 C,0,-6.6177627641,-1.2647053306,-0.4420654055
 Recover connectivity data from disk.

 GradGradGradGradGradGradGradGradGradGradGradGradGradGradGradGradGradGrad
 Berny optimization.
 Initialization pass.
                           ----------------------------
                           !    Initial Parameters    !
                           ! (Angstroms and Degrees)  !
 --------------------------                            --------------------------
 ! Name  Definition              Value          Derivative Info.                !
 --------------------------------------------------------------------------------
 ! R1    R(1,2)                  1.0729         estimate D2E/DX2                !
 ! R2    R(1,3)                  1.3189         estimate D2E/DX2                !
 ! R3    R(1,16)                 1.4055         estimate D2E/DX2                !
 ! R4    R(3,4)                  1.0751         estimate D2E/DX2                !
 ! R5    R(3,5)                  1.5057         estimate D2E/DX2                !
 ! R6    R(5,6)                  1.0875         estimate D2E/DX2                !
 ! R7    R(5,7)                  1.0871         estimate D2E/DX2                !
 ! R8    R(5,8)                  1.5134         estimate D2E/DX2                !
 ! R9    R(8,9)                  1.4793         estimate D2E/DX2                !
 ! R10   R(8,14)                 1.3353         estimate D2E/DX2                !
 ! R11   R(9,10)                 1.2264         estimate D2E/DX2                !
 ! R12   R(9,11)                 1.3434         estimate D2E/DX2                !
 ! R13   R(11,12)                0.9976         estimate D2E/DX2                !
 ! R14   R(11,13)                0.9988         estimate D2E/DX2                !
 ! R15   R(14,15)                1.0701         estimate D2E/DX2                !
 ! R16   R(14,16)                1.3785         estimate D2E/DX2                !
 ! R17   R(16,17)                1.4327         estimate D2E/DX2                !
 ! R18   R(17,18)                1.0822         estimate D2E/DX2                !
 ! R19   R(17,19)                1.5295         estimate D2E/DX2                !
 ! R20   R(17,29)                1.4116         estimate D2E/DX2                !
 ! R21   R(19,20)                1.0806         estimate D2E/DX2                !
 ! R22   R(19,21)                1.4024         estimate D2E/DX2                !
 ! R23   R(19,23)                1.5326         estimate D2E/DX2                !
 ! R24   R(21,22)                0.9502         estimate D2E/DX2                !
 ! R25   R(23,24)                1.0784         estimate D2E/DX2                !
 ! R26   R(23,25)                1.4075         estimate D2E/DX2                !
 ! R27   R(23,27)                1.5407         estimate D2E/DX2                !
 ! R28   R(25,26)                0.9514         estimate D2E/DX2                !
 ! R29   R(27,28)                1.0837         estimate D2E/DX2                !
 ! R30   R(27,29)                1.4198         estimate D2E/DX2                !
 ! R31   R(27,30)                1.5114         estimate D2E/DX2                !
 ! R32   R(30,31)                1.0801         estimate D2E/DX2                !
 ! R33   R(30,32)                1.0829         estimate D2E/DX2                !
 ! R34   R(30,33)                1.4184         estimate D2E/DX2                !
 ! R35   R(33,34)                1.6009         estimate D2E/DX2                !
 ! R36   R(34,35)                1.482          estimate D2E/DX2                !
 ! R37   R(34,36)                1.4827         estimate D2E/DX2                !
 ! R38   R(34,37)                1.6243         estimate D2E/DX2                !
 ! R39   R(37,38)                1.6204         estimate D2E/DX2                !
 ! R40   R(38,39)                1.4816         estimate D2E/DX2                !
 ! R41   R(38,40)                1.4799         estimate D2E/DX2                !
 ! R42   R(38,41)                1.606          estimate D2E/DX2                !
 ! R43   R(41,42)                1.4171         estimate D2E/DX2                !
 ! R44   R(42,43)                1.0815         estimate D2E/DX2                !
 ! R45   R(42,44)                1.0812         estimate D2E/DX2                !
 ! R46   R(42,45)                1.5172         estimate D2E/DX2                !
 ! R47   R(45,46)                1.0818         estimate D2E/DX2                !
 ! R48   R(45,47)                1.4268         estimate D2E/DX2                !
 ! R49   R(45,48)                1.5322         estimate D2E/DX2                !
 ! R50   R(47,56)                1.4042         estimate D2E/DX2                !
 ! R51   R(48,49)                1.0782         estimate D2E/DX2                !
 ! R52   R(48,50)                1.4103         estimate D2E/DX2                !
 ! R53   R(48,52)                1.5297         estimate D2E/DX2                !
 ! R54   R(50,51)                0.9521         estimate D2E/DX2                !
 ! R55   R(52,53)                1.0807         estimate D2E/DX2                !
 ! R56   R(52,54)                1.3983         estimate D2E/DX2                !
 ! R57   R(52,56)                1.5283         estimate D2E/DX2                !
 ! R58   R(54,55)                0.9522         estimate D2E/DX2                !
 ! R59   R(56,57)                1.0799         estimate D2E/DX2                !
 ! R60   R(56,58)                1.4407         estimate D2E/DX2                !
 ! R61   R(58,59)                1.3715         estimate D2E/DX2                !
 ! R62   R(58,71)                1.3651         estimate D2E/DX2                !
 ! R63   R(59,60)                1.0696         estimate D2E/DX2                !
 ! R64   R(59,61)                1.2828         estimate D2E/DX2                !
 ! R65   R(61,62)                1.3857         estimate D2E/DX2                !
 ! R66   R(62,63)                1.3987         estimate D2E/DX2                !
 ! R67   R(62,71)                1.3749         estimate D2E/DX2                !
 ! R68   R(63,64)                1.3414         estimate D2E/DX2                !
 ! R69   R(63,67)                1.3329         estimate D2E/DX2                !
 ! R70   R(64,65)                0.996          estimate D2E/DX2                !
 ! R71   R(64,66)                0.9965         estimate D2E/DX2                !
 ! R72   R(67,68)                1.3268         estimate D2E/DX2                !
 ! R73   R(68,69)                1.074          estimate D2E/DX2                !
 ! R74   R(68,70)                1.3139         estimate D2E/DX2                !
 ! R75   R(70,71)                1.3319         estimate D2E/DX2                !
 ! A1    A(2,1,3)              122.2639         estimate D2E/DX2                !
 ! A2    A(2,1,16)             114.6975         estimate D2E/DX2                !
 ! A3    A(3,1,16)             123.0328         estimate D2E/DX2                !
 ! A4    A(1,3,4)              118.4927         estimate D2E/DX2                !
 ! A5    A(1,3,5)              123.1045         estimate D2E/DX2                !
 ! A6    A(4,3,5)              118.4026         estimate D2E/DX2                !
 ! A7    A(3,5,6)              110.4208         estimate D2E/DX2                !
 ! A8    A(3,5,7)              109.9893         estimate D2E/DX2                !
 ! A9    A(3,5,8)              109.8955         estimate D2E/DX2                !
 ! A10   A(6,5,7)              105.5064         estimate D2E/DX2                !
 ! A11   A(6,5,8)              110.8284         estimate D2E/DX2                !
 ! A12   A(7,5,8)              110.1222         estimate D2E/DX2                !
 ! A13   A(5,8,9)              116.1076         estimate D2E/DX2                !
 ! A14   A(5,8,14)             122.1404         estimate D2E/DX2                !
 ! A15   A(9,8,14)             121.6664         estimate D2E/DX2                !
 ! A16   A(8,9,10)             119.3734         estimate D2E/DX2                !
 ! A17   A(8,9,11)             120.1488         estimate D2E/DX2                !
 ! A18   A(10,9,11)            120.4627         estimate D2E/DX2                !
 ! A19   A(9,11,12)            123.2436         estimate D2E/DX2                !
 ! A20   A(9,11,13)            116.7296         estimate D2E/DX2                !
 ! A21   A(12,11,13)           116.3155         estimate D2E/DX2                !
 ! A22   A(8,14,15)            121.4136         estimate D2E/DX2                !
 ! A23   A(8,14,16)            123.7163         estimate D2E/DX2                !
 ! A24   A(15,14,16)           114.861          estimate D2E/DX2                !
 ! A25   A(1,16,14)            116.8509         estimate D2E/DX2                !
 ! A26   A(1,16,17)            118.4516         estimate D2E/DX2                !
 ! A27   A(14,16,17)           120.5096         estimate D2E/DX2                !
 ! A28   A(16,17,18)           106.8688         estimate D2E/DX2                !
 ! A29   A(16,17,19)           116.9829         estimate D2E/DX2                !
 ! A30   A(16,17,29)           110.613          estimate D2E/DX2                !
 ! A31   A(18,17,19)           108.115          estimate D2E/DX2                !
 ! A32   A(18,17,29)           109.7981         estimate D2E/DX2                !
 ! A33   A(19,17,29)           104.349          estimate D2E/DX2                !
 ! A34   A(17,19,20)           110.9399         estimate D2E/DX2                !
 ! A35   A(17,19,21)           112.8558         estimate D2E/DX2                !
 ! A36   A(17,19,23)           102.4334         estimate D2E/DX2                !
 ! A37   A(20,19,21)           110.2975         estimate D2E/DX2                !
 ! A38   A(20,19,23)           108.554          estimate D2E/DX2                !
 ! A39   A(21,19,23)           111.4611         estimate D2E/DX2                !
 ! A40   A(19,21,22)           108.8328         estimate D2E/DX2                !
 ! A41   A(19,23,24)           111.2765         estimate D2E/DX2                !
 ! A42   A(19,23,25)           113.3332         estimate D2E/DX2                !
 ! A43   A(19,23,27)           103.1638         estimate D2E/DX2                !
 ! A44   A(24,23,25)           105.272          estimate D2E/DX2                !
 ! A45   A(24,23,27)           111.605          estimate D2E/DX2                !
 ! A46   A(25,23,27)           112.387          estimate D2E/DX2                !
 ! A47   A(23,25,26)           110.6017         estimate D2E/DX2                !
 ! A48   A(23,27,28)           108.9725         estimate D2E/DX2                !
 ! A49   A(23,27,29)           106.6845         estimate D2E/DX2                !
 ! A50   A(23,27,30)           115.1995         estimate D2E/DX2                !
 ! A51   A(28,27,29)           109.5056         estimate D2E/DX2                !
 ! A52   A(28,27,30)           107.7645         estimate D2E/DX2                !
 ! A53   A(29,27,30)           108.6307         estimate D2E/DX2                !
 ! A54   A(17,29,27)           111.0927         estimate D2E/DX2                !
 ! A55   A(27,30,31)           109.487          estimate D2E/DX2                !
 ! A56   A(27,30,32)           109.9293         estimate D2E/DX2                !
 ! A57   A(27,30,33)           108.5337         estimate D2E/DX2                !
 ! A58   A(31,30,32)           109.1125         estimate D2E/DX2                !
 ! A59   A(31,30,33)           109.519          estimate D2E/DX2                !
 ! A60   A(32,30,33)           110.2448         estimate D2E/DX2                !
 ! A61   A(30,33,34)           122.9679         estimate D2E/DX2                !
 ! A62   A(33,34,35)           110.8628         estimate D2E/DX2                !
 ! A63   A(33,34,36)           106.7161         estimate D2E/DX2                !
 ! A64   A(33,34,37)            98.686          estimate D2E/DX2                !
 ! A65   A(35,34,36)           120.0475         estimate D2E/DX2                !
 ! A66   A(35,34,37)           109.1058         estimate D2E/DX2                !
 ! A67   A(36,34,37)           109.2965         estimate D2E/DX2                !
 ! A68   A(34,37,38)           130.4181         estimate D2E/DX2                !
 ! A69   A(37,38,39)           105.626          estimate D2E/DX2                !
 ! A70   A(37,38,40)           110.3323         estimate D2E/DX2                !
 ! A71   A(37,38,41)           102.2064         estimate D2E/DX2                !
 ! A72   A(39,38,40)           120.5843         estimate D2E/DX2                !
 ! A73   A(39,38,41)           110.155          estimate D2E/DX2                !
 ! A74   A(40,38,41)           106.4562         estimate D2E/DX2                !
 ! A75   A(38,41,42)           121.3675         estimate D2E/DX2                !
 ! A76   A(41,42,43)           110.9383         estimate D2E/DX2                !
 ! A77   A(41,42,44)           109.0564         estimate D2E/DX2                !
 ! A78   A(41,42,45)           108.112          estimate D2E/DX2                !
 ! A79   A(43,42,44)           108.8791         estimate D2E/DX2                !
 ! A80   A(43,42,45)           110.1968         estimate D2E/DX2                !
 ! A81   A(44,42,45)           109.6385         estimate D2E/DX2                !
 ! A82   A(42,45,46)           109.7279         estimate D2E/DX2                !
 ! A83   A(42,45,47)           107.1293         estimate D2E/DX2                !
 ! A84   A(42,45,48)           113.9373         estimate D2E/DX2                !
 ! A85   A(46,45,47)           109.0468         estimate D2E/DX2                !
 ! A86   A(46,45,48)           110.4759         estimate D2E/DX2                !
 ! A87   A(47,45,48)           106.3215         estimate D2E/DX2                !
 ! A88   A(45,47,56)           111.4107         estimate D2E/DX2                !
 ! A89   A(45,48,49)           112.0404         estimate D2E/DX2                !
 ! A90   A(45,48,50)           113.2369         estimate D2E/DX2                !
 ! A91   A(45,48,52)           102.2747         estimate D2E/DX2                !
 ! A92   A(49,48,50)           105.8298         estimate D2E/DX2                !
 ! A93   A(49,48,52)           111.9182         estimate D2E/DX2                !
 ! A94   A(50,48,52)           111.7249         estimate D2E/DX2                !
 ! A95   A(48,50,51)           111.1104         estimate D2E/DX2                !
 ! A96   A(48,52,53)           109.4318         estimate D2E/DX2                !
 ! A97   A(48,52,54)           114.8912         estimate D2E/DX2                !
 ! A98   A(48,52,56)           101.9598         estimate D2E/DX2                !
 ! A99   A(53,52,54)           107.3282         estimate D2E/DX2                !
 ! A100  A(53,52,56)           109.4026         estimate D2E/DX2                !
 ! A101  A(54,52,56)           113.6897         estimate D2E/DX2                !
 ! A102  A(52,54,55)           108.2118         estimate D2E/DX2                !
 ! A103  A(47,56,52)           104.6118         estimate D2E/DX2                !
 ! A104  A(47,56,57)           110.6887         estimate D2E/DX2                !
 ! A105  A(47,56,58)           109.1253         estimate D2E/DX2                !
 ! A106  A(52,56,57)           110.4486         estimate D2E/DX2                !
 ! A107  A(52,56,58)           115.3309         estimate D2E/DX2                !
 ! A108  A(57,56,58)           106.6591         estimate D2E/DX2                !
 ! A109  A(56,58,59)           126.6813         estimate D2E/DX2                !
 ! A110  A(56,58,71)           127.4389         estimate D2E/DX2                !
 ! A111  A(59,58,71)           105.8276         estimate D2E/DX2                !
 ! A112  A(58,59,60)           120.9909         estimate D2E/DX2                !
 ! A113  A(58,59,61)           113.965          estimate D2E/DX2                !
 ! A114  A(60,59,61)           125.0423         estimate D2E/DX2                !
 ! A115  A(59,61,62)           104.1565         estimate D2E/DX2                !
 ! A116  A(61,62,63)           132.9082         estimate D2E/DX2                !
 ! A117  A(61,62,71)           110.5785         estimate D2E/DX2                !
 ! A118  A(63,62,71)           116.5133         estimate D2E/DX2                !
 ! A119  A(62,63,64)           122.798          estimate D2E/DX2                !
 ! A120  A(62,63,67)           118.4047         estimate D2E/DX2                !
 ! A121  A(64,63,67)           118.775          estimate D2E/DX2                !
 ! A122  A(63,64,65)           119.0155         estimate D2E/DX2                !
 ! A123  A(63,64,66)           117.6307         estimate D2E/DX2                !
 ! A124  A(65,64,66)           116.9096         estimate D2E/DX2                !
 ! A125  A(63,67,68)           118.4696         estimate D2E/DX2                !
 ! A126  A(67,68,69)           115.2569         estimate D2E/DX2                !
 ! A127  A(67,68,70)           128.7495         estimate D2E/DX2                !
 ! A128  A(69,68,70)           115.9919         estimate D2E/DX2                !
 ! A129  A(68,70,71)           111.8187         estimate D2E/DX2                !
 ! A130  A(58,71,62)           105.4709         estimate D2E/DX2                !
 ! A131  A(58,71,70)           128.4867         estimate D2E/DX2                !
 ! A132  A(62,71,70)           126.0423         estimate D2E/DX2                !
 ! D1    D(2,1,3,4)              0.065          estimate D2E/DX2                !
 ! D2    D(2,1,3,5)           -179.7837         estimate D2E/DX2                !
 ! D3    D(16,1,3,4)           179.1405         estimate D2E/DX2                !
 ! D4    D(16,1,3,5)            -0.7082         estimate D2E/DX2                !
 ! D5    D(2,1,16,14)         -171.0762         estimate D2E/DX2                !
 ! D6    D(2,1,16,17)          -13.9266         estimate D2E/DX2                !
 ! D7    D(3,1,16,14)            9.7843         estimate D2E/DX2                !
 ! D8    D(3,1,16,17)          166.9339         estimate D2E/DX2                !
 ! D9    D(1,3,5,6)            114.6105         estimate D2E/DX2                !
 ! D10   D(1,3,5,7)           -129.3499         estimate D2E/DX2                !
 ! D11   D(1,3,5,8)             -7.9533         estimate D2E/DX2                !
 ! D12   D(4,3,5,6)            -65.2384         estimate D2E/DX2                !
 ! D13   D(4,3,5,7)             50.8013         estimate D2E/DX2                !
 ! D14   D(4,3,5,8)            172.1979         estimate D2E/DX2                !
 ! D15   D(3,5,8,9)           -174.9866         estimate D2E/DX2                !
 ! D16   D(3,5,8,14)             8.3285         estimate D2E/DX2                !
 ! D17   D(6,5,8,9)             62.6909         estimate D2E/DX2                !
 ! D18   D(6,5,8,14)          -113.9939         estimate D2E/DX2                !
 ! D19   D(7,5,8,9)            -53.6696         estimate D2E/DX2                !
 ! D20   D(7,5,8,14)           129.6455         estimate D2E/DX2                !
 ! D21   D(5,8,9,10)           -12.2551         estimate D2E/DX2                !
 ! D22   D(5,8,9,11)           169.1494         estimate D2E/DX2                !
 ! D23   D(14,8,9,10)          164.4467         estimate D2E/DX2                !
 ! D24   D(14,8,9,11)          -14.1487         estimate D2E/DX2                !
 ! D25   D(5,8,14,15)          178.8005         estimate D2E/DX2                !
 ! D26   D(5,8,14,16)           -0.0424         estimate D2E/DX2                !
 ! D27   D(9,8,14,15)            2.2984         estimate D2E/DX2                !
 ! D28   D(9,8,14,16)         -176.5446         estimate D2E/DX2                !
 ! D29   D(8,9,11,12)          -17.4134         estimate D2E/DX2                !
 ! D30   D(8,9,11,13)         -174.867          estimate D2E/DX2                !
 ! D31   D(10,9,11,12)         164.0066         estimate D2E/DX2                !
 ! D32   D(10,9,11,13)           6.553          estimate D2E/DX2                !
 ! D33   D(8,14,16,1)           -9.3685         estimate D2E/DX2                !
 ! D34   D(8,14,16,17)        -166.0218         estimate D2E/DX2                !
 ! D35   D(15,14,16,1)         171.7198         estimate D2E/DX2                !
 ! D36   D(15,14,16,17)         15.0665         estimate D2E/DX2                !
 ! D37   D(1,16,17,18)          24.2116         estimate D2E/DX2                !
 ! D38   D(1,16,17,19)         145.4756         estimate D2E/DX2                !
 ! D39   D(1,16,17,29)         -95.2736         estimate D2E/DX2                !
 ! D40   D(14,16,17,18)       -179.5003         estimate D2E/DX2                !
 ! D41   D(14,16,17,19)        -58.2363         estimate D2E/DX2                !
 ! D42   D(14,16,17,29)         61.0145         estimate D2E/DX2                !
 ! D43   D(16,17,19,20)         42.0654         estimate D2E/DX2                !
 ! D44   D(16,17,19,21)        -82.293          estimate D2E/DX2                !
 ! D45   D(16,17,19,23)        157.7393         estimate D2E/DX2                !
 ! D46   D(18,17,19,20)        162.6741         estimate D2E/DX2                !
 ! D47   D(18,17,19,21)         38.3157         estimate D2E/DX2                !
 ! D48   D(18,17,19,23)        -81.652          estimate D2E/DX2                !
 ! D49   D(29,17,19,20)        -80.4839         estimate D2E/DX2                !
 ! D50   D(29,17,19,21)        155.1577         estimate D2E/DX2                !
 ! D51   D(29,17,19,23)         35.19           estimate D2E/DX2                !
 ! D52   D(16,17,29,27)       -155.1361         estimate D2E/DX2                !
 ! D53   D(18,17,29,27)         87.1597         estimate D2E/DX2                !
 ! D54   D(19,17,29,27)        -28.5102         estimate D2E/DX2                !
 ! D55   D(17,19,21,22)         80.0067         estimate D2E/DX2                !
 ! D56   D(20,19,21,22)        -44.703          estimate D2E/DX2                !
 ! D57   D(23,19,21,22)       -165.363          estimate D2E/DX2                !
 ! D58   D(17,19,23,24)       -148.6015         estimate D2E/DX2                !
 ! D59   D(17,19,23,25)         92.9858         estimate D2E/DX2                !
 ! D60   D(17,19,23,27)        -28.8079         estimate D2E/DX2                !
 ! D61   D(20,19,23,24)        -31.212          estimate D2E/DX2                !
 ! D62   D(20,19,23,25)       -149.6246         estimate D2E/DX2                !
 ! D63   D(20,19,23,27)         88.5817         estimate D2E/DX2                !
 ! D64   D(21,19,23,24)         90.4646         estimate D2E/DX2                !
 ! D65   D(21,19,23,25)        -27.9481         estimate D2E/DX2                !
 ! D66   D(21,19,23,27)       -149.7417         estimate D2E/DX2                !
 ! D67   D(19,23,25,26)        -55.1649         estimate D2E/DX2                !
 ! D68   D(24,23,25,26)       -176.9971         estimate D2E/DX2                !
 ! D69   D(27,23,25,26)         61.3169         estimate D2E/DX2                !
 ! D70   D(19,23,27,28)        131.3036         estimate D2E/DX2                !
 ! D71   D(19,23,27,29)         13.1629         estimate D2E/DX2                !
 ! D72   D(19,23,27,30)       -107.4756         estimate D2E/DX2                !
 ! D73   D(24,23,27,28)       -109.1292         estimate D2E/DX2                !
 ! D74   D(24,23,27,29)        132.7302         estimate D2E/DX2                !
 ! D75   D(24,23,27,30)         12.0917         estimate D2E/DX2                !
 ! D76   D(25,23,27,28)          8.8743         estimate D2E/DX2                !
 ! D77   D(25,23,27,29)       -109.2664         estimate D2E/DX2                !
 ! D78   D(25,23,27,30)        130.0951         estimate D2E/DX2                !
 ! D79   D(23,27,29,17)          9.6192         estimate D2E/DX2                !
 ! D80   D(28,27,29,17)       -108.171          estimate D2E/DX2                !
 ! D81   D(30,27,29,17)        134.3771         estimate D2E/DX2                !
 ! D82   D(23,27,30,31)        176.2686         estimate D2E/DX2                !
 ! D83   D(23,27,30,32)        -63.8805         estimate D2E/DX2                !
 ! D84   D(23,27,30,33)         56.7674         estimate D2E/DX2                !
 ! D85   D(28,27,30,31)        -61.8572         estimate D2E/DX2                !
 ! D86   D(28,27,30,32)         57.9937         estimate D2E/DX2                !
 ! D87   D(28,27,30,33)        178.6416         estimate D2E/DX2                !
 ! D88   D(29,27,30,31)         56.6987         estimate D2E/DX2                !
 ! D89   D(29,27,30,32)        176.5497         estimate D2E/DX2                !
 ! D90   D(29,27,30,33)        -62.8024         estimate D2E/DX2                !
 ! D91   D(27,30,33,34)        170.1845         estimate D2E/DX2                !
 ! D92   D(31,30,33,34)         50.7034         estimate D2E/DX2                !
 ! D93   D(32,30,33,34)        -69.3631         estimate D2E/DX2                !
 ! D94   D(30,33,34,35)        -23.5837         estimate D2E/DX2                !
 ! D95   D(30,33,34,36)       -155.9564         estimate D2E/DX2                !
 ! D96   D(30,33,34,37)         90.7826         estimate D2E/DX2                !
 ! D97   D(33,34,37,38)       -170.2805         estimate D2E/DX2                !
 ! D98   D(35,34,37,38)        -54.5471         estimate D2E/DX2                !
 ! D99   D(36,34,37,38)         78.5102         estimate D2E/DX2                !
 ! D100  D(34,37,38,39)       -165.6768         estimate D2E/DX2                !
 ! D101  D(34,37,38,40)        -33.8347         estimate D2E/DX2                !
 ! D102  D(34,37,38,41)         79.0734         estimate D2E/DX2                !
 ! D103  D(37,38,41,42)         59.1169         estimate D2E/DX2                !
 ! D104  D(39,38,41,42)        -52.7816         estimate D2E/DX2                !
 ! D105  D(40,38,41,42)        174.8758         estimate D2E/DX2                !
 ! D106  D(38,41,42,43)         24.7615         estimate D2E/DX2                !
 ! D107  D(38,41,42,44)        -95.1531         estimate D2E/DX2                !
 ! D108  D(38,41,42,45)        145.6974         estimate D2E/DX2                !
 ! D109  D(41,42,45,46)         52.6228         estimate D2E/DX2                !
 ! D110  D(41,42,45,47)        170.8716         estimate D2E/DX2                !
 ! D111  D(41,42,45,48)        -71.8342         estimate D2E/DX2                !
 ! D112  D(43,42,45,46)        174.0186         estimate D2E/DX2                !
 ! D113  D(43,42,45,47)        -67.7325         estimate D2E/DX2                !
 ! D114  D(43,42,45,48)         49.5617         estimate D2E/DX2                !
 ! D115  D(44,42,45,46)        -66.1575         estimate D2E/DX2                !
 ! D116  D(44,42,45,47)         52.0913         estimate D2E/DX2                !
 ! D117  D(44,42,45,48)        169.3855         estimate D2E/DX2                !
 ! D118  D(42,45,47,56)        123.4831         estimate D2E/DX2                !
 ! D119  D(46,45,47,56)       -117.8261         estimate D2E/DX2                !
 ! D120  D(48,45,47,56)          1.2986         estimate D2E/DX2                !
 ! D121  D(42,45,48,49)         23.3419         estimate D2E/DX2                !
 ! D122  D(42,45,48,50)        142.9518         estimate D2E/DX2                !
 ! D123  D(42,45,48,52)        -96.6725         estimate D2E/DX2                !
 ! D124  D(46,45,48,49)       -100.713          estimate D2E/DX2                !
 ! D125  D(46,45,48,50)         18.8969         estimate D2E/DX2                !
 ! D126  D(46,45,48,52)        139.2726         estimate D2E/DX2                !
 ! D127  D(47,45,48,49)        141.1019         estimate D2E/DX2                !
 ! D128  D(47,45,48,50)        -99.2882         estimate D2E/DX2                !
 ! D129  D(47,45,48,52)         21.0875         estimate D2E/DX2                !
 ! D130  D(45,47,56,52)        -23.384          estimate D2E/DX2                !
 ! D131  D(45,47,56,57)         95.588          estimate D2E/DX2                !
 ! D132  D(45,47,56,58)       -147.3279         estimate D2E/DX2                !
 ! D133  D(45,48,50,51)         43.2971         estimate D2E/DX2                !
 ! D134  D(49,48,50,51)        166.4055         estimate D2E/DX2                !
 ! D135  D(52,48,50,51)        -71.5461         estimate D2E/DX2                !
 ! D136  D(45,48,52,53)         82.0772         estimate D2E/DX2                !
 ! D137  D(45,48,52,54)       -157.1345         estimate D2E/DX2                !
 ! D138  D(45,48,52,56)        -33.6962         estimate D2E/DX2                !
 ! D139  D(49,48,52,53)        -38.0224         estimate D2E/DX2                !
 ! D140  D(49,48,52,54)         82.7658         estimate D2E/DX2                !
 ! D141  D(49,48,52,56)       -153.7958         estimate D2E/DX2                !
 ! D142  D(50,48,52,53)       -156.5015         estimate D2E/DX2                !
 ! D143  D(50,48,52,54)        -35.7133         estimate D2E/DX2                !
 ! D144  D(50,48,52,56)         87.7251         estimate D2E/DX2                !
 ! D145  D(48,52,54,55)         38.0415         estimate D2E/DX2                !
 ! D146  D(53,52,54,55)        159.9766         estimate D2E/DX2                !
 ! D147  D(56,52,54,55)        -78.8979         estimate D2E/DX2                !
 ! D148  D(48,52,56,47)         35.4855         estimate D2E/DX2                !
 ! D149  D(48,52,56,57)        -83.6488         estimate D2E/DX2                !
 ! D150  D(48,52,56,58)        155.3537         estimate D2E/DX2                !
 ! D151  D(53,52,56,47)        -80.3092         estimate D2E/DX2                !
 ! D152  D(53,52,56,57)        160.5566         estimate D2E/DX2                !
 ! D153  D(53,52,56,58)         39.5591         estimate D2E/DX2                !
 ! D154  D(54,52,56,47)        159.7326         estimate D2E/DX2                !
 ! D155  D(54,52,56,57)         40.5984         estimate D2E/DX2                !
 ! D156  D(54,52,56,58)        -80.3991         estimate D2E/DX2                !
 ! D157  D(47,56,58,59)         56.2399         estimate D2E/DX2                !
 ! D158  D(47,56,58,71)       -120.7517         estimate D2E/DX2                !
 ! D159  D(52,56,58,59)        -61.1187         estimate D2E/DX2                !
 ! D160  D(52,56,58,71)        121.8897         estimate D2E/DX2                !
 ! D161  D(57,56,58,59)        175.849          estimate D2E/DX2                !
 ! D162  D(57,56,58,71)         -1.1426         estimate D2E/DX2                !
 ! D163  D(56,58,59,60)          1.6878         estimate D2E/DX2                !
 ! D164  D(56,58,59,61)       -177.8438         estimate D2E/DX2                !
 ! D165  D(71,58,59,60)        179.2054         estimate D2E/DX2                !
 ! D166  D(71,58,59,61)         -0.3263         estimate D2E/DX2                !
 ! D167  D(56,58,71,62)        177.8722         estimate D2E/DX2                !
 ! D168  D(56,58,71,70)         -2.0826         estimate D2E/DX2                !
 ! D169  D(59,58,71,62)          0.3796         estimate D2E/DX2                !
 ! D170  D(59,58,71,70)       -179.5752         estimate D2E/DX2                !
 ! D171  D(58,59,61,62)          0.118          estimate D2E/DX2                !
 ! D172  D(60,59,61,62)       -179.3916         estimate D2E/DX2                !
 ! D173  D(59,61,62,63)       -179.9557         estimate D2E/DX2                !
 ! D174  D(59,61,62,71)          0.1378         estimate D2E/DX2                !
 ! D175  D(61,62,63,64)         -1.562          estimate D2E/DX2                !
 ! D176  D(61,62,63,67)       -179.8224         estimate D2E/DX2                !
 ! D177  D(71,62,63,64)        178.3401         estimate D2E/DX2                !
 ! D178  D(71,62,63,67)          0.0797         estimate D2E/DX2                !
 ! D179  D(61,62,71,58)         -0.3315         estimate D2E/DX2                !
 ! D180  D(61,62,71,70)        179.6248         estimate D2E/DX2                !
 ! D181  D(63,62,71,58)        179.7451         estimate D2E/DX2                !
 ! D182  D(63,62,71,70)         -0.2986         estimate D2E/DX2                !
 ! D183  D(62,63,64,65)         16.3148         estimate D2E/DX2                !
 ! D184  D(62,63,64,66)        167.302          estimate D2E/DX2                !
 ! D185  D(67,63,64,65)       -165.4308         estimate D2E/DX2                !
 ! D186  D(67,63,64,66)        -14.4437         estimate D2E/DX2                !
 ! D187  D(62,63,67,68)          0.2849         estimate D2E/DX2                !
 ! D188  D(64,63,67,68)       -178.0469         estimate D2E/DX2                !
 ! D189  D(63,67,68,69)        179.9665         estimate D2E/DX2                !
 ! D190  D(63,67,68,70)         -0.5348         estimate D2E/DX2                !
 ! D191  D(67,68,70,71)          0.3229         estimate D2E/DX2                !
 ! D192  D(69,68,70,71)        179.8186         estimate D2E/DX2                !
 ! D193  D(68,70,71,58)       -179.9394         estimate D2E/DX2                !
 ! D194  D(68,70,71,62)          0.1145         estimate D2E/DX2                !
 --------------------------------------------------------------------------------
 Trust Radius=3.00D-01 FncErr=1.00D-07 GrdErr=1.00D-07
 Number of steps in this run=    411 maximum allowed number of steps=    426.
 GradGradGradGradGradGradGradGradGradGradGradGradGradGradGradGradGradGrad

 Stoichiometry    C21H27N7O14P2(2-)
 Framework group  C1[X(C21H27N7O14P2)]
 Deg. of freedom   207
 Full point group                 C1      NOp   1
 Largest Abelian subgroup         C1      NOp   1
 Largest concise Abelian subgroup C1      NOp   1
                         Standard orientation:                         
 ---------------------------------------------------------------------
 Center     Atomic      Atomic             Coordinates (Angstroms)
 Number     Number       Type             X           Y           Z
 ---------------------------------------------------------------------
      1          6           0       -6.869581    2.829095   -0.810200
      2          1           0       -6.610650    3.857838   -0.970441
      3          6           0       -8.003681    2.312972   -1.242490
      4          1           0       -8.687443    2.950009   -1.773908
      5          6           0       -8.388246    0.873627   -1.024157
      6          1           0       -9.259528    0.807675   -0.376654
      7          1           0       -8.691221    0.422982   -1.965866
      8          6           0       -7.220731    0.112365   -0.434493
      9          6           0       -7.410420   -1.345470   -0.270295
     10          8           0       -8.533365   -1.823416   -0.391511
     11          7           0       -6.365193   -2.131510    0.036712
     12          1           0       -5.415523   -1.848146   -0.077907
     13          1           0       -6.534134   -3.115655    0.057794
     14          6           0       -6.108693    0.725450   -0.021660
     15          1           0       -5.297615    0.177676    0.411024
     16          7           0       -5.915813    2.088638   -0.090755
     17          6           0       -4.608786    2.648180    0.085884
     18          1           0       -4.712310    3.721787   -0.001997
     19          6           0       -3.896836    2.345492    1.405264
     20          1           0       -4.032357    1.311660    1.688886
     21          8           0       -4.298828    3.192703    2.447972
     22          1           0       -5.126756    2.880942    2.794606
     23          6           0       -2.423619    2.562623    1.042646
     24          1           0       -1.779984    1.913863    1.615158
     25          8           0       -1.969571    3.867297    1.312299
     26          1           0       -2.519488    4.509855    0.876648
     27          6           0       -2.378561    2.224434   -0.459803
     28          1           0       -1.855437    3.015872   -0.983546
     29          8           0       -3.725374    2.170234   -0.906009
     30          6           0       -1.702481    0.917531   -0.805262
     31          1           0       -1.780412    0.741450   -1.868039
     32          1           0       -0.656379    0.958643   -0.528445
     33          8           0       -2.355427   -0.127403   -0.102618
     34         15           0       -2.071933   -1.677367   -0.385601
     35          8           0       -1.539035   -1.875152   -1.754313
     36          8           0       -3.277490   -2.418998    0.056098
     37          8           0       -0.876034   -1.908195    0.689045
     38         15           0        0.118787   -3.169926    0.898908
     39          8           0        0.747597   -2.966101    2.224821
     40          8           0       -0.581731   -4.434984    0.584224
     41          8           0        1.200728   -2.946849   -0.266815
     42          6           0        1.979446   -1.764750   -0.334121
     43          1           0        2.072120   -1.306943    0.641273
     44          1           0        1.501206   -1.064693   -1.005167
     45          6           0        3.349447   -2.132455   -0.872479
     46          1           0        3.242564   -2.683001   -1.797576
     47          8           0        4.039638   -0.911472   -1.134355
     48          6           0        4.217796   -2.913825    0.118981
     49          1           0        3.625058   -3.424867    0.860646
     50          8           0        5.006227   -3.908637   -0.495672
     51          1           0        5.404266   -3.584012   -1.297300
     52          6           0        5.078657   -1.810668    0.736983
     53          1           0        4.521782   -1.316348    1.520275
     54          8           0        6.283957   -2.247785    1.295096
     55          1           0        6.637905   -2.934522    0.738469
     56          6           0        5.258745   -0.852680   -0.440037
     57          1           0        6.072905   -1.178322   -1.070389
     58          7           0        5.533804    0.516035   -0.084273
     59          6           0        4.724351    1.352563    0.641072
     60          1           0        3.790048    1.010807    1.033977
     61          7           0        5.191308    2.539413    0.778638
     62          6           0        6.398529    2.509494    0.099112
     63          6           0        7.388025    3.471827   -0.127196
     64          7           0        7.288217    4.734421    0.314589
     65          1           0        6.618964    4.947684    1.020746
     66          1           0        8.107443    5.300951    0.283779
     67          7           0        8.458466    3.124742   -0.841468
     68          6           0        8.532255    1.885103   -1.308769
     69          1           0        9.415574    1.661505   -1.877259
     70          7           0        7.677207    0.898416   -1.161440
     71          6           0        6.617763    1.264705   -0.442065
 ---------------------------------------------------------------------
 Rotational constants (GHZ):      0.1104751      0.0284712      0.0238840
 Standard basis: 6-31G(d) (6D, 7F)
 There are   722 symmetry adapted cartesian basis functions of A   symmetry.
 There are   722 symmetry adapted basis functions of A   symmetry.
   722 basis functions,  1388 primitive gaussians,   722 cartesian basis functions
   173 alpha electrons      173 beta electrons
       nuclear repulsion energy      6029.5294938989 Hartrees.
 NAtoms=   71 NActive=   71 NUniq=   71 SFac= 1.00D+00 NAtFMM=   60 NAOKFM=T Big=T
 Integral buffers will be    131072 words long.
 Raffenetti 1 integral format.
 Two-electron integral symmetry is turned on.
 ------------------------------------------------------------------------------
 Polarizable Continuum Model (PCM)
 =================================
 Model                : PCM (using non-symmetric T matrix).
 Atomic radii         : SMD-Coulomb.
 Polarization charges : Total charges.
 Charge compensation  : None.
 Solution method      : On-the-fly selection.
 Cavity type          : VdW (van der Waals Surface) (Alpha=1.000).
 Cavity algorithm     : GePol (No added spheres)
                        Default sphere list used, NSphG=   71.
                        Lebedev-Laikov grids with approx.  5.0 points / Ang**2.
                        Smoothing algorithm: York/Karplus (Gamma=1.0000).
                        Polarization charges: spherical gaussians, with
                                              point-specific exponents (IZeta= 3).
                        Self-potential: point-specific (ISelfS= 7).
                        Self-field    : sphere-specific E.n sum rule (ISelfD= 2).
 1st derivatives      : Analytical E(r).r(x)/FMM algorithm (CHGder, D1EAlg=3).
                        Cavity 1st derivative terms included.
 Solvent              : Water, Eps=  78.355300 Eps(inf)=   1.777849
 ------------------------------------------------------------------------------
 ------------------------------------------------------------------------------
 Atomic radii for non-electrostatic terms: SMD-CDS.
 ------------------------------------------------------------------------------
 Nuclear repulsion after PCM non-electrostatic terms =     6029.5474922545 Hartrees.
 One-electron integrals computed using PRISM.
 NBasis=   722 RedAO= T EigKep=  6.82D-04  NBF=   722
 NBsUse=   722 1.00D-06 EigRej= -1.00D+00 NBFU=   722
 ExpMin= 9.98D-02 ExpMax= 1.94D+04 ExpMxC= 2.91D+03 IAcc=2 IRadAn=         4 AccDes= 0.00D+00
 Harris functional with IExCor=  205 and IRadAn=       4 diagonalized for initial guess.
 HarFok:  IExCor=  205 AccDes= 0.00D+00 IRadAn=         4 IDoV= 1 UseB2=F ITyADJ=14
 ICtDFT=  3500011 ScaDFX=  1.000000  1.000000  1.000000  1.000000
 FoFCou: FMM=F IPFlag=           0 FMFlag=      100000 FMFlg1=        2001
         NFxFlg=           0 DoJE=T BraDBF=F KetDBF=T FulRan=T
         wScrn=  0.000000 ICntrl=     500 IOpCl=  0 I1Cent=   200000004 NGrid=           0
         NMat0=    1 NMatS0=      1 NMatT0=    0 NMatD0=    1 NMtDS0=    0 NMtDT0=    0
 Petite list used in FoFCou.
 Requested convergence on RMS density matrix=1.00D-08 within 128 cycles.
 Requested convergence on MAX density matrix=1.00D-06.
 Requested convergence on             energy=1.00D-06.
 No special actions if energy rises.
 Inv3:  Mode=1 IEnd=    76750092.
 Iteration    1 A*A^-1 deviation from unit magnitude is 1.35D-14 for   5054.
 Iteration    1 A*A^-1 deviation from orthogonality  is 4.67D-15 for   5013   2011.
 Iteration    1 A^-1*A deviation from unit magnitude is 1.35D-14 for   5054.
 Iteration    1 A^-1*A deviation from orthogonality  is 1.13D-09 for   4883   4863.
 Iteration    2 A*A^-1 deviation from unit magnitude is 2.44D-15 for   2820.
 Iteration    2 A*A^-1 deviation from orthogonality  is 4.45D-15 for   2843    895.
 Iteration    2 A^-1*A deviation from unit magnitude is 9.99D-16 for    970.
 Iteration    2 A^-1*A deviation from orthogonality  is 4.34D-16 for   2527    179.
 Error on total polarization charges =  0.05772
 SCF Done:  E(RHF) =  -2922.18663630     A.U. after   14 cycles
            NFock= 14  Conv=0.55D-08     -V/T= 2.0017
 SMD-CDS (non-electrostatic) energy       (kcal/mol) =      11.29
 (included in total energy above)

 **********************************************************************

            Population analysis using the SCF density.

 **********************************************************************

 Orbital symmetries:
       Occupied  (A) (A) (A) (A) (A) (A) (A) (A) (A) (A) (A) (A)
                 (A) (A) (A) (A) (A) (A) (A) (A) (A) (A) (A) (A)
                 (A) (A) (A) (A) (A) (A) (A) (A) (A) (A) (A) (A)
                 (A) (A) (A) (A) (A) (A) (A) (A) (A) (A) (A) (A)
                 (A) (A) (A) (A) (A) (A) (A) (A) (A) (A) (A) (A)
                 (A) (A) (A) (A) (A) (A) (A) (A) (A) (A) (A) (A)
                 (A) (A) (A) (A) (A) (A) (A) (A) (A) (A) (A) (A)
                 (A) (A) (A) (A) (A) (A) (A) (A) (A) (A) (A) (A)
                 (A) (A) (A) (A) (A) (A) (A) (A) (A) (A) (A) (A)
                 (A) (A) (A) (A) (A) (A) (A) (A) (A) (A) (A) (A)
                 (A) (A) (A) (A) (A) (A) (A) (A) (A) (A) (A) (A)
                 (A) (A) (A) (A) (A) (A) (A) (A) (A) (A) (A) (A)
                 (A) (A) (A) (A) (A) (A) (A) (A) (A) (A) (A) (A)
                 (A) (A) (A) (A) (A) (A) (A) (A) (A) (A) (A) (A)
                 (A) (A) (A) (A) (A)
       Virtual   (A) (A) (A) (A) (A) (A) (A) (A) (A) (A) (A) (A)
                 (A) (A) (A) (A) (A) (A) (A) (A) (A) (A) (A) (A)
                 (A) (A) (A) (A) (A) (A) (A) (A) (A) (A) (A) (A)
                 (A) (A) (A) (A) (A) (A) (A) (A) (A) (A) (A) (A)
                 (A) (A) (A) (A) (A) (A) (A) (A) (A) (A) (A) (A)
                 (A) (A) (A) (A) (A) (A) (A) (A) (A) (A) (A) (A)
                 (A) (A) (A) (A) (A) (A) (A) (A) (A) (A) (A) (A)
                 (A) (A) (A) (A) (A) (A) (A) (A) (A) (A) (A) (A)
                 (A) (A) (A) (A) (A) (A) (A) (A) (A) (A) (A) (A)
                 (A) (A) (A) (A) (A) (A) (A) (A) (A) (A) (A) (A)
                 (A) (A) (A) (A) (A) (A) (A) (A) (A) (A) (A) (A)
                 (A) (A) (A) (A) (A) (A) (A) (A) (A) (A) (A) (A)
                 (A) (A) (A) (A) (A) (A) (A) (A) (A) (A) (A) (A)
                 (A) (A) (A) (A) (A) (A) (A) (A) (A) (A) (A) (A)
                 (A) (A) (A) (A) (A) (A) (A) (A) (A) (A) (A) (A)
                 (A) (A) (A) (A) (A) (A) (A) (A) (A) (A) (A) (A)
                 (A) (A) (A) (A) (A) (A) (A) (A) (A) (A) (A) (A)
                 (A) (A) (A) (A) (A) (A) (A) (A) (A) (A) (A) (A)
                 (A) (A) (A) (A) (A) (A) (A) (A) (A) (A) (A) (A)
                 (A) (A) (A) (A) (A) (A) (A) (A) (A) (A) (A) (A)
                 (A) (A) (A) (A) (A) (A) (A) (A) (A) (A) (A) (A)
                 (A) (A) (A) (A) (A) (A) (A) (A) (A) (A) (A) (A)
                 (A) (A) (A) (A) (A) (A) (A) (A) (A) (A) (A) (A)
                 (A) (A) (A) (A) (A) (A) (A) (A) (A) (A) (A) (A)
                 (A) (A) (A) (A) (A) (A) (A) (A) (A) (A) (A) (A)
                 (A) (A) (A) (A) (A) (A) (A) (A) (A) (A) (A) (A)
                 (A) (A) (A) (A) (A) (A) (A) (A) (A) (A) (A) (A)
                 (A) (A) (A) (A) (A) (A) (A) (A) (A) (A) (A) (A)
                 (A) (A) (A) (A) (A) (A) (A) (A) (A) (A) (A) (A)
                 (A) (A) (A) (A) (A) (A) (A) (A) (A) (A) (A) (A)
                 (A) (A) (A) (A) (A) (A) (A) (A) (A) (A) (A) (A)
                 (A) (A) (A) (A) (A) (A) (A) (A) (A) (A) (A) (A)
                 (A) (A) (A) (A) (A) (A) (A) (A) (A) (A) (A) (A)
                 (A) (A) (A) (A) (A) (A) (A) (A) (A) (A) (A) (A)
                 (A) (A) (A) (A) (A) (A) (A) (A) (A) (A) (A) (A)
                 (A) (A) (A) (A) (A) (A) (A) (A) (A) (A) (A) (A)
                 (A) (A) (A) (A) (A) (A) (A) (A) (A) (A) (A) (A)
                 (A) (A) (A) (A) (A) (A) (A) (A) (A) (A) (A) (A)
                 (A) (A) (A) (A) (A) (A) (A) (A) (A) (A) (A) (A)
                 (A) (A) (A) (A) (A) (A) (A) (A) (A) (A) (A) (A)
                 (A) (A) (A) (A) (A) (A) (A) (A) (A) (A) (A) (A)
                 (A) (A) (A) (A) (A) (A) (A) (A) (A) (A) (A) (A)
                 (A) (A) (A) (A) (A) (A) (A) (A) (A) (A) (A) (A)
                 (A) (A) (A) (A) (A) (A) (A) (A) (A) (A) (A) (A)
                 (A) (A) (A) (A) (A) (A) (A) (A) (A) (A) (A) (A)
                 (A) (A) (A) (A) (A) (A) (A) (A) (A)
 The electronic state is 1-A.
 Alpha  occ. eigenvalues --  -80.07336 -80.07251 -20.58255 -20.57857 -20.57776
 Alpha  occ. eigenvalues --  -20.57719 -20.57396 -20.57192 -20.57172 -20.56989
 Alpha  occ. eigenvalues --  -20.56744 -20.52373 -20.50094 -20.50094 -20.50060
 Alpha  occ. eigenvalues --  -20.49972 -15.62712 -15.59812 -15.57553 -15.56566
 Alpha  occ. eigenvalues --  -15.56507 -15.56033 -15.55332 -11.35183 -11.33610
 Alpha  occ. eigenvalues --  -11.32956 -11.31715 -11.31413 -11.30944 -11.30884
 Alpha  occ. eigenvalues --  -11.28484 -11.28428 -11.28393 -11.28332 -11.28148
 Alpha  occ. eigenvalues --  -11.27980 -11.27943 -11.27899 -11.27788 -11.26013
 Alpha  occ. eigenvalues --  -11.24741 -11.22391 -11.22328 -11.21392  -7.59560
 Alpha  occ. eigenvalues --   -7.59484  -5.49445  -5.49412  -5.49387  -5.49324
 Alpha  occ. eigenvalues --   -5.49312  -5.49253  -1.43720  -1.42759  -1.41742
 Alpha  occ. eigenvalues --   -1.40193  -1.38751  -1.38350  -1.38001  -1.37349
 Alpha  occ. eigenvalues --   -1.36368  -1.36251  -1.35846  -1.31098  -1.30832
 Alpha  occ. eigenvalues --   -1.29021  -1.28172  -1.26226  -1.26213  -1.25311
 Alpha  occ. eigenvalues --   -1.20187  -1.20076  -1.16047  -1.09308  -1.05457
 Alpha  occ. eigenvalues --   -1.04809  -1.04654  -1.04588  -1.02589  -1.02069
 Alpha  occ. eigenvalues --   -0.93787  -0.93600  -0.89496  -0.89337  -0.88053
 Alpha  occ. eigenvalues --   -0.87940  -0.86182  -0.83800  -0.82809  -0.81657
 Alpha  occ. eigenvalues --   -0.81164  -0.79764  -0.79441  -0.77142  -0.75051
 Alpha  occ. eigenvalues --   -0.74719  -0.74319  -0.73302  -0.72259  -0.71046
 Alpha  occ. eigenvalues --   -0.70771  -0.70548  -0.69297  -0.68512  -0.68331
 Alpha  occ. eigenvalues --   -0.68015  -0.67928  -0.67112  -0.66780  -0.65944
 Alpha  occ. eigenvalues --   -0.65457  -0.64871  -0.64296  -0.63356  -0.63225
 Alpha  occ. eigenvalues --   -0.62889  -0.62800  -0.62265  -0.61513  -0.61175
 Alpha  occ. eigenvalues --   -0.60930  -0.60712  -0.60456  -0.60049  -0.59701
 Alpha  occ. eigenvalues --   -0.59446  -0.59065  -0.59050  -0.58188  -0.58071
 Alpha  occ. eigenvalues --   -0.57751  -0.56670  -0.55926  -0.55545  -0.55144
 Alpha  occ. eigenvalues --   -0.54959  -0.53889  -0.53151  -0.52501  -0.51808
 Alpha  occ. eigenvalues --   -0.51640  -0.51249  -0.50874  -0.50793  -0.50148
 Alpha  occ. eigenvalues --   -0.49652  -0.49018  -0.48943  -0.48684  -0.48315
 Alpha  occ. eigenvalues --   -0.48242  -0.47809  -0.47200  -0.45848  -0.45621
 Alpha  occ. eigenvalues --   -0.45414  -0.45149  -0.44439  -0.44087  -0.43659
 Alpha  occ. eigenvalues --   -0.43333  -0.43139  -0.42868  -0.42644  -0.42316
 Alpha  occ. eigenvalues --   -0.41736  -0.41345  -0.40838  -0.40455  -0.37503
 Alpha  occ. eigenvalues --   -0.36765  -0.31111  -0.28816
 Alpha virt. eigenvalues --    0.12967   0.13274   0.15770   0.20425   0.21823
 Alpha virt. eigenvalues --    0.22090   0.22897   0.23136   0.23824   0.24580
 Alpha virt. eigenvalues --    0.25012   0.25403   0.25851   0.26619   0.27066
 Alpha virt. eigenvalues --    0.27712   0.27818   0.28642   0.29280   0.29610
 Alpha virt. eigenvalues --    0.29973   0.30024   0.30494   0.31145   0.31641
 Alpha virt. eigenvalues --    0.31782   0.32042   0.32270   0.32581   0.33300
 Alpha virt. eigenvalues --    0.34118   0.34522   0.34739   0.35284   0.36141
 Alpha virt. eigenvalues --    0.36559   0.36790   0.37205   0.37539   0.37844
 Alpha virt. eigenvalues --    0.38191   0.38753   0.39260   0.39757   0.39938
 Alpha virt. eigenvalues --    0.40238   0.41039   0.41227   0.41989   0.42161
 Alpha virt. eigenvalues --    0.42605   0.43122   0.43897   0.44033   0.44845
 Alpha virt. eigenvalues --    0.45422   0.46025   0.46327   0.47059   0.47381
 Alpha virt. eigenvalues --    0.48357   0.49025   0.49757   0.50091   0.50294
 Alpha virt. eigenvalues --    0.51151   0.52001   0.53063   0.53632   0.53921
 Alpha virt. eigenvalues --    0.54000   0.54771   0.55368   0.55434   0.56077
 Alpha virt. eigenvalues --    0.58159   0.58295   0.59277   0.59617   0.60138
 Alpha virt. eigenvalues --    0.61439   0.61559   0.62263   0.63577   0.64010
 Alpha virt. eigenvalues --    0.64797   0.66076   0.67935   0.68390   0.70117
 Alpha virt. eigenvalues --    0.72378   0.73473   0.73891   0.74826   0.75544
 Alpha virt. eigenvalues --    0.75778   0.76337   0.77211   0.77743   0.78908
 Alpha virt. eigenvalues --    0.79069   0.79775   0.80321   0.80817   0.81068
 Alpha virt. eigenvalues --    0.81299   0.81570   0.82117   0.82154   0.82330
 Alpha virt. eigenvalues --    0.83080   0.83340   0.83613   0.84054   0.85043
 Alpha virt. eigenvalues --    0.85453   0.85574   0.85853   0.86147   0.87277
 Alpha virt. eigenvalues --    0.87956   0.88551   0.88934   0.89089   0.89786
 Alpha virt. eigenvalues --    0.90794   0.91055   0.91580   0.91633   0.92570
 Alpha virt. eigenvalues --    0.92711   0.93626   0.93720   0.93914   0.94134
 Alpha virt. eigenvalues --    0.94723   0.95384   0.96589   0.96697   0.97098
 Alpha virt. eigenvalues --    0.97386   0.97769   0.98689   0.99323   0.99460
 Alpha virt. eigenvalues --    0.99777   1.00142   1.00879   1.01198   1.01603
 Alpha virt. eigenvalues --    1.02629   1.03333   1.03910   1.04599   1.05097
 Alpha virt. eigenvalues --    1.05697   1.06770   1.06798   1.07035   1.07331
 Alpha virt. eigenvalues --    1.07871   1.08293   1.08761   1.09149   1.09554
 Alpha virt. eigenvalues --    1.09803   1.10545   1.11150   1.11487   1.11864
 Alpha virt. eigenvalues --    1.12080   1.12392   1.13096   1.13279   1.14118
 Alpha virt. eigenvalues --    1.14590   1.15214   1.15394   1.15843   1.16204
 Alpha virt. eigenvalues --    1.16706   1.16978   1.17602   1.17776   1.18114
 Alpha virt. eigenvalues --    1.18376   1.18639   1.19111   1.19651   1.20111
 Alpha virt. eigenvalues --    1.20231   1.21005   1.21280   1.21814   1.22217
 Alpha virt. eigenvalues --    1.22999   1.23058   1.23758   1.24399   1.24720
 Alpha virt. eigenvalues --    1.24929   1.25374   1.25960   1.26193   1.26715
 Alpha virt. eigenvalues --    1.27552   1.28023   1.28465   1.29165   1.30065
 Alpha virt. eigenvalues --    1.30244   1.30393   1.30667   1.31036   1.31377
 Alpha virt. eigenvalues --    1.31985   1.32498   1.32873   1.33113   1.33858
 Alpha virt. eigenvalues --    1.34080   1.34260   1.34955   1.35136   1.36140
 Alpha virt. eigenvalues --    1.36516   1.37039   1.38036   1.38342   1.39135
 Alpha virt. eigenvalues --    1.40798   1.41060   1.41482   1.42712   1.43348
 Alpha virt. eigenvalues --    1.43697   1.44163   1.44317   1.45012   1.45446
 Alpha virt. eigenvalues --    1.45640   1.47083   1.47712   1.49222   1.49464
 Alpha virt. eigenvalues --    1.50220   1.50313   1.51022   1.51722   1.52716
 Alpha virt. eigenvalues --    1.53184   1.53790   1.54220   1.54766   1.55518
 Alpha virt. eigenvalues --    1.55806   1.56778   1.57733   1.58253   1.58927
 Alpha virt. eigenvalues --    1.59255   1.59975   1.60563   1.61217   1.62308
 Alpha virt. eigenvalues --    1.62828   1.63321   1.65392   1.65941   1.66246
 Alpha virt. eigenvalues --    1.66623   1.67989   1.68496   1.69072   1.69796
 Alpha virt. eigenvalues --    1.70580   1.71268   1.72171   1.73037   1.73233
 Alpha virt. eigenvalues --    1.74487   1.75707   1.76034   1.76482   1.77191
 Alpha virt. eigenvalues --    1.77613   1.78565   1.79561   1.79776   1.80707
 Alpha virt. eigenvalues --    1.80844   1.81563   1.82467   1.83019   1.83826
 Alpha virt. eigenvalues --    1.84415   1.84742   1.86373   1.87178   1.88308
 Alpha virt. eigenvalues --    1.89542   1.90049   1.91187   1.92000   1.92307
 Alpha virt. eigenvalues --    1.92904   1.93704   1.94799   1.96522   1.97156
 Alpha virt. eigenvalues --    1.97752   1.98305   1.99380   2.00131   2.00919
 Alpha virt. eigenvalues --    2.01748   2.03089   2.03679   2.04254   2.04363
 Alpha virt. eigenvalues --    2.04996   2.06007   2.06178   2.07105   2.07752
 Alpha virt. eigenvalues --    2.08273   2.08443   2.08755   2.09257   2.10035
 Alpha virt. eigenvalues --    2.10680   2.10830   2.11429   2.12657   2.12841
 Alpha virt. eigenvalues --    2.13294   2.13766   2.13911   2.14177   2.14408
 Alpha virt. eigenvalues --    2.14538   2.15388   2.15485   2.15738   2.16399
 Alpha virt. eigenvalues --    2.17231   2.17423   2.17816   2.17877   2.19521
 Alpha virt. eigenvalues --    2.20182   2.20755   2.22973   2.23377   2.24556
 Alpha virt. eigenvalues --    2.24707   2.25432   2.26097   2.26384   2.27752
 Alpha virt. eigenvalues --    2.28106   2.28929   2.29161   2.30015   2.30228
 Alpha virt. eigenvalues --    2.30651   2.32177   2.33125   2.33413   2.33995
 Alpha virt. eigenvalues --    2.34652   2.34753   2.35179   2.36342   2.37263
 Alpha virt. eigenvalues --    2.38401   2.39437   2.40126   2.41041   2.41935
 Alpha virt. eigenvalues --    2.42630   2.42937   2.44339   2.45251   2.45337
 Alpha virt. eigenvalues --    2.46168   2.46529   2.46639   2.47597   2.48550
 Alpha virt. eigenvalues --    2.48862   2.49921   2.50724   2.50906   2.51898
 Alpha virt. eigenvalues --    2.52198   2.52894   2.53227   2.54147   2.54306
 Alpha virt. eigenvalues --    2.54959   2.55799   2.56432   2.56724   2.57362
 Alpha virt. eigenvalues --    2.57892   2.58335   2.59384   2.60820   2.60978
 Alpha virt. eigenvalues --    2.61127   2.62119   2.63812   2.65076   2.65870
 Alpha virt. eigenvalues --    2.66306   2.67607   2.68118   2.68690   2.69815
 Alpha virt. eigenvalues --    2.70315   2.70650   2.72129   2.72265   2.72685
 Alpha virt. eigenvalues --    2.73207   2.74331   2.74603   2.75206   2.76086
 Alpha virt. eigenvalues --    2.78137   2.79952   2.80824   2.81103   2.81819
 Alpha virt. eigenvalues --    2.83289   2.83350   2.83980   2.84594   2.85798
 Alpha virt. eigenvalues --    2.86140   2.86639   2.87760   2.88662   2.89686
 Alpha virt. eigenvalues --    2.91363   2.92151   2.92240   2.93133   2.94057
 Alpha virt. eigenvalues --    2.94491   2.94663   2.95403   2.95919   2.96997
 Alpha virt. eigenvalues --    2.98214   2.99043   3.00134   3.01669   3.01960
 Alpha virt. eigenvalues --    3.02933   3.03301   3.04369   3.05148   3.05663
 Alpha virt. eigenvalues --    3.06577   3.08452   3.09636   3.10006   3.11937
 Alpha virt. eigenvalues --    3.12090   3.13017   3.13172   3.14305   3.15417
 Alpha virt. eigenvalues --    3.16362   3.18578   3.18834   3.21292   3.21343
 Alpha virt. eigenvalues --    3.22227   3.23865   3.24188   3.24830   3.25830
 Alpha virt. eigenvalues --    3.28177   3.29661   3.30478   3.30836   3.31948
 Alpha virt. eigenvalues --    3.33611   3.33823   3.35614   3.36021   3.39638
 Alpha virt. eigenvalues --    3.40345   3.42633   3.43734   3.46677   3.47362
 Alpha virt. eigenvalues --    3.58380   3.63095   3.69302   3.74676   3.87552
 Alpha virt. eigenvalues --    3.88467   3.90619   4.15400   4.17895   4.21836
 Alpha virt. eigenvalues --    4.24500   4.30564   4.30770   4.33354   4.36518
 Alpha virt. eigenvalues --    4.38230   4.41037   4.43613   4.44905   4.45510
 Alpha virt. eigenvalues --    4.49201   4.50608   4.51530   4.57433   4.57898
 Alpha virt. eigenvalues --    4.58827   4.59384   4.60668   4.60814   4.67706
 Alpha virt. eigenvalues --    4.69862   4.71879   4.73905   4.74123   4.76253
 Alpha virt. eigenvalues --    4.78419   4.81585   4.86300   4.91334   4.92644
 Alpha virt. eigenvalues --    4.93749   4.95481   4.96935   5.06040   5.09379
 Alpha virt. eigenvalues --    5.12575   5.14708   5.17380   5.17879
          Condensed to atoms (all electrons):
 Mulliken charges:
               1
     1  C    0.084256
     2  H    0.252929
     3  C   -0.314165
     4  H    0.217954
     5  C   -0.293361
     6  H    0.185719
     7  H    0.185864
     8  C   -0.246006
     9  C    0.792539
    10  O   -0.762286
    11  N   -0.977034
    12  H    0.464518
    13  H    0.416770
    14  C    0.145214
    15  H    0.280721
    16  N   -0.728418
    17  C    0.361684
    18  H    0.221885
    19  C    0.124356
    20  H    0.226079
    21  O   -0.813469
    22  H    0.493452
    23  C    0.103024
    24  H    0.231158
    25  O   -0.822161
    26  H    0.489948
    27  C    0.138049
    28  H    0.214128
    29  O   -0.714162
    30  C   -0.017231
    31  H    0.201945
    32  H    0.201259
    33  O   -0.747522
    34  P    1.606599
    35  O   -0.906531
    36  O   -0.872520
    37  O   -0.859604
    38  P    1.601183
    39  O   -0.885134
    40  O   -0.880992
    41  O   -0.763898
    42  C   -0.017149
    43  H    0.199944
    44  H    0.206961
    45  C    0.135182
    46  H    0.222373
    47  O   -0.719683
    48  C    0.089347
    49  H    0.240439
    50  O   -0.825788
    51  H    0.497962
    52  C    0.129820
    53  H    0.234677
    54  O   -0.816486
    55  H    0.491196
    56  C    0.407532
    57  H    0.236798
    58  N   -0.779260
    59  C    0.319739
    60  H    0.285847
    61  N   -0.632346
    62  C    0.054650
    63  C    0.637465
    64  N   -0.931558
    65  H    0.432340
    66  H    0.423880
    67  N   -0.702201
    68  C    0.280439
    69  H    0.237968
    70  N   -0.678776
    71  C    0.701953
 Sum of Mulliken charges =  -2.00000
 Mulliken charges with hydrogens summed into heavy atoms:
               1
     1  C    0.337185
     3  C   -0.096211
     5  C    0.078222
     8  C   -0.246006
     9  C    0.792539
    10  O   -0.762286
    11  N   -0.095746
    14  C    0.425935
    16  N   -0.728418
    17  C    0.583568
    19  C    0.350435
    21  O   -0.320017
    23  C    0.334182
    25  O   -0.332214
    27  C    0.352178
    29  O   -0.714162
    30  C    0.385973
    33  O   -0.747522
    34  P    1.606599
    35  O   -0.906531
    36  O   -0.872520
    37  O   -0.859604
    38  P    1.601183
    39  O   -0.885134
    40  O   -0.880992
    41  O   -0.763898
    42  C    0.389756
    45  C    0.357554
    47  O   -0.719683
    48  C    0.329786
    50  O   -0.327826
    52  C    0.364497
    54  O   -0.325290
    56  C    0.644330
    58  N   -0.779260
    59  C    0.605585
    61  N   -0.632346
    62  C    0.054650
    63  C    0.637465
    64  N   -0.075339
    67  N   -0.702201
    68  C    0.518407
    70  N   -0.678776
    71  C    0.701953
 Electronic spatial extent (au):  <R**2>=          41511.4387
 Charge=             -2.0000 electrons
 Dipole moment (field-independent basis, Debye):
    X=             15.9784    Y=             30.6176    Z=             -3.3910  Tot=             34.7023
 Quadrupole moment (field-independent basis, Debye-Ang):
   XX=           -423.6226   YY=           -362.8440   ZZ=           -301.8835
   XY=            -67.7899   XZ=            -16.4570   YZ=             15.7496
 Traceless Quadrupole moment (field-independent basis, Debye-Ang):
   XX=            -60.8392   YY=             -0.0606   ZZ=             60.8998
   XY=            -67.7899   XZ=            -16.4570   YZ=             15.7496
 Octapole moment (field-independent basis, Debye-Ang**2):
  XXX=            816.1293  YYY=            481.4022  ZZZ=            -16.0823  XYY=             95.5612
  XXY=            376.3883  XXZ=             77.4791  XZZ=            -11.4279  YZZ=             28.1234
  YYZ=            -82.1731  XYZ=            147.7588
 Hexadecapole moment (field-independent basis, Debye-Ang**3):
 XXXX=         -55074.5913 YYYY=         -10736.9346 ZZZZ=          -1790.9421 XXXY=          -3434.1935
 XXXZ=           -450.3753 YYYX=            103.2538 YYYZ=            296.9473 ZZZX=           -201.4845
 ZZZY=            121.2664 XXYY=          -8446.6259 XXZZ=          -7547.0628 YYZZ=          -2187.6115
 XXYZ=            562.6371 YYXZ=            272.3853 ZZXY=            -37.0679
 N-N= 6.029547492254D+03 E-N=-1.901756558091D+04  KE= 2.917340156069D+03
 D1PCM: PCM CHGder 1st derivatives, ID1Alg=3 FixD1E=F DoIter=F DoCFld=F I1PDM=0.
 Calling FoFJK, ICntrl=      2127 FMM=T ISym2X=0 I1Cent= 0 IOpClX= 0 NMat=1 NMatS=1 NMatT=0.
 ***** Axes restored to original set *****
 -------------------------------------------------------------------
 Center     Atomic                   Forces (Hartrees/Bohr)
 Number     Number              X              Y              Z
 -------------------------------------------------------------------
      1        6          -0.000107561   -0.000332395   -0.000178004
      2        1           0.000258824    0.000125243    0.000248269
      3        6           0.000212487    0.000013428   -0.000856052
      4        1           0.000146697   -0.000033786    0.000177379
      5        6          -0.000143386   -0.000994609   -0.000679472
      6        1           0.000273727    0.000104376    0.000470006
      7        1           0.000223007    0.000117603   -0.000012242
      8        6          -0.000956332    0.000921392    0.000847846
      9        6           0.000393876    0.000709198    0.000562426
     10        8          -0.001153627    0.000707039    0.000045621
     11        7           0.000913296   -0.000403005   -0.000936022
     12        1          -0.000012148    0.001142269    0.000229514
     13        1           0.000223797   -0.001324921    0.000018830
     14        6          -0.000255807   -0.000514013   -0.000494849
     15        1           0.000205388   -0.000613974   -0.000133811
     16        7           0.000911251    0.000165169    0.000647519
     17        6          -0.002249839   -0.000454969   -0.000073782
     18        1           0.000306055    0.000652260   -0.000104738
     19        6          -0.000525425   -0.001025407   -0.000192698
     20        1          -0.000209319    0.000248287   -0.000454783
     21        8          -0.000144937    0.000196049    0.000161651
     22        1           0.000347237    0.000171874   -0.000099648
     23        6           0.000526506    0.000724966    0.000266384
     24        1          -0.000060071    0.000018428    0.000099954
     25        8          -0.000166045   -0.000921326    0.000459556
     26        1          -0.000311416    0.000430231   -0.000260410
     27        6          -0.000780888    0.000222488    0.000564260
     28        1           0.000427037   -0.000023621    0.000010429
     29        8           0.001356799    0.000151497   -0.000280059
     30        6          -0.000158033    0.000313398   -0.000451325
     31        1          -0.000423762   -0.000337009   -0.000097793
     32        1           0.000190486    0.000097042    0.000405381
     33        8           0.001051730    0.000216995   -0.000549335
     34       15          -0.000449189   -0.000390214   -0.000324477
     35        8           0.000290755    0.000275493    0.000491229
     36        8          -0.000719555    0.000082535    0.000519797
     37        8           0.000187363    0.000407624    0.000356663
     38       15          -0.000389353   -0.000284247   -0.000732429
     39        8          -0.000200836    0.000014411    0.000816616
     40        8           0.000435244   -0.000182439   -0.000553664
     41        8           0.000594138   -0.000174233    0.000460164
     42        6           0.000060220   -0.000327199   -0.000087295
     43        1           0.000250622   -0.000037864   -0.000181231
     44        1           0.000064491    0.000174390   -0.000056887
     45        6          -0.000064919   -0.000106700    0.000563531
     46        1           0.000016565   -0.000132517    0.000199900
     47        8          -0.000319360    0.000037381   -0.000756101
     48        6           0.000267397    0.000169848   -0.000489797
     49        1           0.000043054   -0.000119208    0.000020219
     50        8          -0.000557524   -0.000287750    0.000446534
     51        1           0.000502314   -0.000465517    0.000123725
     52        6          -0.000231040    0.000037538   -0.000046372
     53        1           0.000078285    0.000199090    0.000073987
     54        8           0.000209315    0.000029996   -0.000285227
     55        1          -0.000089373    0.000144688   -0.000135275
     56        6          -0.000305469    0.000651706   -0.000097029
     57        1          -0.000088387   -0.000035177    0.000222737
     58        7           0.000024046    0.000077541    0.000482731
     59        6          -0.000010181    0.000083468   -0.000331214
     60        1          -0.000011767   -0.000007902    0.000062782
     61        7          -0.000129995   -0.000180020    0.000057847
     62        6          -0.000158814    0.000722438    0.000093996
     63        6           0.000440968    0.000128627    0.000568271
     64        7           0.000190255   -0.000620908   -0.000738627
     65        1           0.000023900   -0.000139092    0.000500267
     66        1          -0.000279267   -0.000543357    0.000445926
     67        7          -0.000013742    0.000419892   -0.000633193
     68        6          -0.000405215    0.000771225    0.000609465
     69        1           0.000051515   -0.000135518   -0.000236243
     70        7          -0.000252093   -0.000179582   -0.000251775
     71        6           0.000636026   -0.000548643   -0.000539554
 -------------------------------------------------------------------
 Cartesian Forces:  Max     0.002249839 RMS     0.000462161

 GradGradGradGradGradGradGradGradGradGradGradGradGradGradGradGradGradGrad
 Berny optimization.
 FormGI is forming the generalized inverse of G from B-inverse, IUseBI=4.
 GSVD:  received Info=                   1 from GESDD.
 Internal  Forces:  Max     0.002596597 RMS     0.000401450
 Search for a local minimum.
 Step number   1 out of a maximum of  411
 All quantities printed in internal units (Hartrees-Bohrs-Radians)
 Mixed Optimization -- En-DIIS/RFO-DIIS
 Second derivative matrix not updated -- first step.
 ITU=  0
     Eigenvalues ---    0.00432   0.00529   0.00538   0.00615   0.00842
     Eigenvalues ---    0.00958   0.00962   0.01040   0.01153   0.01259
     Eigenvalues ---    0.01399   0.01448   0.01465   0.01555   0.01593
     Eigenvalues ---    0.01610   0.01661   0.01693   0.01714   0.01750
     Eigenvalues ---    0.01876   0.02098   0.02142   0.02149   0.02233
     Eigenvalues ---    0.02276   0.02335   0.02371   0.02441   0.02467
     Eigenvalues ---    0.02498   0.02507   0.02559   0.02577   0.02703
     Eigenvalues ---    0.02748   0.02931   0.03086   0.03092   0.03142
     Eigenvalues ---    0.03143   0.03333   0.03351   0.03401   0.03721
     Eigenvalues ---    0.03740   0.04269   0.04338   0.04770   0.04877
     Eigenvalues ---    0.05013   0.05126   0.05168   0.05281   0.05423
     Eigenvalues ---    0.05427   0.05446   0.05530   0.05535   0.05939
     Eigenvalues ---    0.05996   0.06053   0.06054   0.06265   0.06270
     Eigenvalues ---    0.06347   0.06562   0.06772   0.07808   0.07852
     Eigenvalues ---    0.08573   0.08652   0.09625   0.10297   0.10305
     Eigenvalues ---    0.10909   0.11174   0.11198   0.13415   0.13449
     Eigenvalues ---    0.13646   0.13671   0.15613   0.15713   0.15774
     Eigenvalues ---    0.15899   0.15997   0.15998   0.16000   0.16000
     Eigenvalues ---    0.16000   0.16000   0.16000   0.16000   0.16000
     Eigenvalues ---    0.16000   0.16000   0.16000   0.16000   0.16094
     Eigenvalues ---    0.16323   0.16734   0.16871   0.17147   0.17332
     Eigenvalues ---    0.18346   0.18780   0.20216   0.20362   0.21278
     Eigenvalues ---    0.21643   0.21890   0.22019   0.22039   0.22765
     Eigenvalues ---    0.22912   0.23147   0.23423   0.23606   0.24953
     Eigenvalues ---    0.24957   0.24991   0.24995   0.24997   0.24998
     Eigenvalues ---    0.25000   0.25000   0.25000   0.25000   0.25000
     Eigenvalues ---    0.25000   0.25000   0.26387   0.26542   0.28152
     Eigenvalues ---    0.28396   0.28693   0.28931   0.30401   0.30636
     Eigenvalues ---    0.31144   0.31207   0.34654   0.35099   0.35155
     Eigenvalues ---    0.35555   0.35648   0.35734   0.35776   0.35818
     Eigenvalues ---    0.35844   0.35905   0.35926   0.35985   0.36003
     Eigenvalues ---    0.36190   0.36210   0.36598   0.36732   0.36871
     Eigenvalues ---    0.37217   0.37278   0.39445   0.39490   0.40270
[...]
                 (A) (A) (A) (A) (A) (A) (A) (A) (A) (A) (A) (A)
                 (A) (A) (A) (A) (A) (A) (A) (A) (A) (A) (A) (A)
                 (A) (A) (A) (A) (A) (A) (A) (A) (A) (A) (A) (A)
                 (A) (A) (A) (A) (A) (A) (A) (A) (A) (A) (A) (A)
                 (A) (A) (A) (A) (A) (A) (A) (A) (A) (A) (A) (A)
                 (A) (A) (A) (A) (A) (A) (A) (A) (A)
 The electronic state is 1-A.
 Alpha  occ. eigenvalues --  -80.07296 -80.07268 -20.58253 -20.57932 -20.57837
 Alpha  occ. eigenvalues --  -20.57755 -20.57419 -20.57251 -20.57164 -20.56977
 Alpha  occ. eigenvalues --  -20.56770 -20.52183 -20.50118 -20.50064 -20.50055
 Alpha  occ. eigenvalues --  -20.50027 -15.62733 -15.59813 -15.57526 -15.56556
 Alpha  occ. eigenvalues --  -15.56519 -15.56100 -15.55385 -11.35145 -11.33622
 Alpha  occ. eigenvalues --  -11.32955 -11.31723 -11.31453 -11.30975 -11.30902
 Alpha  occ. eigenvalues --  -11.28488 -11.28451 -11.28376 -11.28315 -11.28167
 Alpha  occ. eigenvalues --  -11.28044 -11.27965 -11.27866 -11.27815 -11.26013
 Alpha  occ. eigenvalues --  -11.24799 -11.22372 -11.22304 -11.21367  -7.59537
 Alpha  occ. eigenvalues --   -7.59501  -5.49428  -5.49405  -5.49381  -5.49328
 Alpha  occ. eigenvalues --   -5.49300  -5.49269  -1.43819  -1.42755  -1.41767
 Alpha  occ. eigenvalues --   -1.40248  -1.38785  -1.38252  -1.37948  -1.37368
 Alpha  occ. eigenvalues --   -1.36365  -1.36275  -1.35903  -1.31102  -1.30865
 Alpha  occ. eigenvalues --   -1.29049  -1.28137  -1.26267  -1.26206  -1.25284
 Alpha  occ. eigenvalues --   -1.20129  -1.20084  -1.16059  -1.09220  -1.05460
 Alpha  occ. eigenvalues --   -1.04919  -1.04687  -1.04584  -1.02598  -1.02080
 Alpha  occ. eigenvalues --   -0.93802  -0.93645  -0.89506  -0.89318  -0.88075
 Alpha  occ. eigenvalues --   -0.87878  -0.86188  -0.83736  -0.82831  -0.81674
 Alpha  occ. eigenvalues --   -0.81321  -0.79732  -0.79577  -0.77128  -0.75143
 Alpha  occ. eigenvalues --   -0.74873  -0.74265  -0.73357  -0.72250  -0.71026
 Alpha  occ. eigenvalues --   -0.70722  -0.70610  -0.69229  -0.68478  -0.68418
 Alpha  occ. eigenvalues --   -0.68032  -0.67904  -0.67149  -0.66688  -0.65923
 Alpha  occ. eigenvalues --   -0.65504  -0.64926  -0.64287  -0.63360  -0.63238
 Alpha  occ. eigenvalues --   -0.62913  -0.62788  -0.62219  -0.61523  -0.61084
 Alpha  occ. eigenvalues --   -0.60841  -0.60739  -0.60365  -0.60012  -0.59776
 Alpha  occ. eigenvalues --   -0.59598  -0.59124  -0.59007  -0.58356  -0.57959
 Alpha  occ. eigenvalues --   -0.57643  -0.56669  -0.55938  -0.55526  -0.55199
 Alpha  occ. eigenvalues --   -0.55013  -0.53871  -0.53277  -0.52509  -0.51842
 Alpha  occ. eigenvalues --   -0.51663  -0.51218  -0.50976  -0.50664  -0.50167
 Alpha  occ. eigenvalues --   -0.49751  -0.49002  -0.48931  -0.48705  -0.48306
 Alpha  occ. eigenvalues --   -0.48147  -0.47774  -0.47214  -0.45999  -0.45785
 Alpha  occ. eigenvalues --   -0.45369  -0.45165  -0.44447  -0.44161  -0.43675
 Alpha  occ. eigenvalues --   -0.43376  -0.43167  -0.42909  -0.42574  -0.42266
 Alpha  occ. eigenvalues --   -0.41728  -0.41377  -0.40714  -0.40519  -0.37486
 Alpha  occ. eigenvalues --   -0.36799  -0.31206  -0.28723
 Alpha virt. eigenvalues --    0.12915   0.13172   0.15707   0.20403   0.21911
 Alpha virt. eigenvalues --    0.22058   0.22970   0.23225   0.23670   0.24489
 Alpha virt. eigenvalues --    0.25163   0.25717   0.25881   0.26346   0.27068
 Alpha virt. eigenvalues --    0.27732   0.28263   0.28796   0.29371   0.29701
 Alpha virt. eigenvalues --    0.29829   0.30453   0.30575   0.31492   0.31768
 Alpha virt. eigenvalues --    0.31875   0.32235   0.32338   0.32746   0.33410
 Alpha virt. eigenvalues --    0.33625   0.34478   0.35090   0.35234   0.36230
 Alpha virt. eigenvalues --    0.36351   0.36828   0.37085   0.37616   0.37892
 Alpha virt. eigenvalues --    0.38327   0.38686   0.38722   0.39823   0.40059
 Alpha virt. eigenvalues --    0.40411   0.40933   0.41251   0.42062   0.42280
 Alpha virt. eigenvalues --    0.42913   0.43217   0.43859   0.43955   0.44936
 Alpha virt. eigenvalues --    0.45493   0.46097   0.46320   0.47123   0.47697
 Alpha virt. eigenvalues --    0.48478   0.49053   0.49794   0.50102   0.50560
 Alpha virt. eigenvalues --    0.51330   0.52028   0.53166   0.53643   0.53871
 Alpha virt. eigenvalues --    0.54107   0.54772   0.55405   0.56016   0.56182
 Alpha virt. eigenvalues --    0.58156   0.58189   0.59183   0.59429   0.60883
 Alpha virt. eigenvalues --    0.61508   0.61908   0.62336   0.63772   0.63938
 Alpha virt. eigenvalues --    0.65273   0.66260   0.67923   0.68827   0.70567
 Alpha virt. eigenvalues --    0.72392   0.73423   0.73953   0.74855   0.75450
 Alpha virt. eigenvalues --    0.75803   0.76704   0.77048   0.77472   0.78839
 Alpha virt. eigenvalues --    0.79049   0.79749   0.80426   0.80849   0.81233
 Alpha virt. eigenvalues --    0.81391   0.81730   0.82262   0.82407   0.82547
 Alpha virt. eigenvalues --    0.83283   0.83486   0.83818   0.84071   0.85230
 Alpha virt. eigenvalues --    0.85431   0.85814   0.86066   0.86550   0.87379
 Alpha virt. eigenvalues --    0.88075   0.88436   0.88816   0.89386   0.89815
 Alpha virt. eigenvalues --    0.90354   0.90947   0.91562   0.91968   0.92712
 Alpha virt. eigenvalues --    0.93122   0.93439   0.93802   0.94260   0.94438
 Alpha virt. eigenvalues --    0.94975   0.95585   0.96515   0.96763   0.96974
 Alpha virt. eigenvalues --    0.97246   0.97712   0.98659   0.99328   0.99493
 Alpha virt. eigenvalues --    0.99750   1.00124   1.00810   1.01165   1.01736
 Alpha virt. eigenvalues --    1.02718   1.03344   1.03908   1.04696   1.05074
 Alpha virt. eigenvalues --    1.05560   1.06136   1.06757   1.06953   1.07234
 Alpha virt. eigenvalues --    1.07807   1.08374   1.08894   1.09187   1.09787
 Alpha virt. eigenvalues --    1.09930   1.10485   1.11040   1.11480   1.11828
 Alpha virt. eigenvalues --    1.11994   1.12229   1.12880   1.13474   1.14235
 Alpha virt. eigenvalues --    1.14871   1.15318   1.15415   1.15753   1.16177
 Alpha virt. eigenvalues --    1.16361   1.17102   1.17174   1.18018   1.18173
 Alpha virt. eigenvalues --    1.18622   1.18774   1.19153   1.19749   1.20094
 Alpha virt. eigenvalues --    1.20212   1.21083   1.21284   1.22072   1.22099
 Alpha virt. eigenvalues --    1.22950   1.23063   1.23682   1.24336   1.24565
 Alpha virt. eigenvalues --    1.24907   1.25428   1.25543   1.26450   1.26530
 Alpha virt. eigenvalues --    1.27818   1.28381   1.28426   1.29268   1.30207
 Alpha virt. eigenvalues --    1.30552   1.30758   1.31218   1.31495   1.31605
 Alpha virt. eigenvalues --    1.31962   1.32413   1.32935   1.33812   1.33985
 Alpha virt. eigenvalues --    1.34210   1.34331   1.34746   1.35290   1.35995
 Alpha virt. eigenvalues --    1.36560   1.36834   1.38097   1.38481   1.38767
 Alpha virt. eigenvalues --    1.40243   1.41212   1.41753   1.42374   1.43232
 Alpha virt. eigenvalues --    1.43396   1.43831   1.44314   1.44838   1.45535
 Alpha virt. eigenvalues --    1.46824   1.47197   1.48658   1.49731   1.50280
 Alpha virt. eigenvalues --    1.50772   1.50884   1.51498   1.51979   1.53116
 Alpha virt. eigenvalues --    1.53858   1.53986   1.54827   1.55203   1.55597
 Alpha virt. eigenvalues --    1.56088   1.57273   1.58428   1.58730   1.59067
 Alpha virt. eigenvalues --    1.59945   1.60357   1.60971   1.62001   1.62454
 Alpha virt. eigenvalues --    1.62892   1.64292   1.65389   1.65720   1.66786
 Alpha virt. eigenvalues --    1.67451   1.68156   1.68731   1.69192   1.69634
 Alpha virt. eigenvalues --    1.71304   1.71364   1.72439   1.72891   1.73207
 Alpha virt. eigenvalues --    1.74429   1.75969   1.76526   1.76847   1.77269
 Alpha virt. eigenvalues --    1.78376   1.79404   1.79688   1.79763   1.80429
 Alpha virt. eigenvalues --    1.80919   1.81225   1.82485   1.83210   1.84244
 Alpha virt. eigenvalues --    1.84426   1.84496   1.85598   1.86824   1.87983
 Alpha virt. eigenvalues --    1.89901   1.90203   1.91401   1.91777   1.92431
 Alpha virt. eigenvalues --    1.93180   1.93755   1.95294   1.96673   1.97316
 Alpha virt. eigenvalues --    1.97668   1.98483   1.99264   1.99739   2.01316
 Alpha virt. eigenvalues --    2.02073   2.03116   2.03252   2.04227   2.04653
 Alpha virt. eigenvalues --    2.05523   2.06347   2.06783   2.07160   2.08104
 Alpha virt. eigenvalues --    2.08269   2.08538   2.08714   2.09662   2.10248
 Alpha virt. eigenvalues --    2.10894   2.11024   2.11692   2.12306   2.12794
 Alpha virt. eigenvalues --    2.13368   2.13493   2.13775   2.14054   2.14295
 Alpha virt. eigenvalues --    2.14589   2.15414   2.15578   2.15870   2.16546
 Alpha virt. eigenvalues --    2.17264   2.17430   2.17661   2.19102   2.20370
 Alpha virt. eigenvalues --    2.20774   2.21845   2.23099   2.24067   2.24606
 Alpha virt. eigenvalues --    2.24812   2.25561   2.26151   2.26541   2.27580
 Alpha virt. eigenvalues --    2.28319   2.28946   2.29442   2.29969   2.30591
 Alpha virt. eigenvalues --    2.31150   2.32034   2.33612   2.33691   2.34479
 Alpha virt. eigenvalues --    2.34690   2.34859   2.35437   2.36032   2.37771
 Alpha virt. eigenvalues --    2.38558   2.39415   2.40324   2.41066   2.42244
 Alpha virt. eigenvalues --    2.42695   2.43433   2.44486   2.45257   2.45411
 Alpha virt. eigenvalues --    2.45935   2.46774   2.47056   2.47955   2.48495
 Alpha virt. eigenvalues --    2.48933   2.49950   2.50587   2.50841   2.52204
 Alpha virt. eigenvalues --    2.52283   2.52769   2.53128   2.53947   2.54410
 Alpha virt. eigenvalues --    2.55029   2.55780   2.56368   2.57300   2.57358
 Alpha virt. eigenvalues --    2.57732   2.58535   2.59870   2.60844   2.60917
 Alpha virt. eigenvalues --    2.61367   2.62154   2.64763   2.65252   2.65998
 Alpha virt. eigenvalues --    2.66399   2.67759   2.68031   2.68920   2.70087
 Alpha virt. eigenvalues --    2.70256   2.70526   2.72029   2.72112   2.72345
 Alpha virt. eigenvalues --    2.72770   2.73877   2.74391   2.75337   2.76248
 Alpha virt. eigenvalues --    2.78019   2.79741   2.80961   2.81132   2.81841
 Alpha virt. eigenvalues --    2.82370   2.83209   2.83414   2.84588   2.85860
 Alpha virt. eigenvalues --    2.86351   2.86898   2.87775   2.88597   2.89765
 Alpha virt. eigenvalues --    2.91611   2.92012   2.92261   2.93041   2.93980
 Alpha virt. eigenvalues --    2.94426   2.94724   2.95446   2.95879   2.96942
 Alpha virt. eigenvalues --    2.98353   2.98901   2.99789   3.01728   3.02467
 Alpha virt. eigenvalues --    3.02815   3.04103   3.04383   3.05517   3.06470
 Alpha virt. eigenvalues --    3.06643   3.08573   3.09913   3.10491   3.12150
 Alpha virt. eigenvalues --    3.12431   3.13133   3.13151   3.14194   3.15556
 Alpha virt. eigenvalues --    3.16496   3.18697   3.18852   3.20878   3.21149
 Alpha virt. eigenvalues --    3.22301   3.23175   3.23914   3.24620   3.25464
 Alpha virt. eigenvalues --    3.28447   3.29591   3.30579   3.31104   3.32131
 Alpha virt. eigenvalues --    3.33409   3.34057   3.35771   3.35950   3.39571
 Alpha virt. eigenvalues --    3.40892   3.42672   3.43131   3.46470   3.48075
 Alpha virt. eigenvalues --    3.59148   3.62749   3.69054   3.74967   3.87508
 Alpha virt. eigenvalues --    3.88375   3.90660   4.15667   4.17954   4.21665
 Alpha virt. eigenvalues --    4.24139   4.30386   4.31323   4.35061   4.36909
 Alpha virt. eigenvalues --    4.39976   4.41107   4.44910   4.45493   4.46421
 Alpha virt. eigenvalues --    4.49248   4.50462   4.52390   4.57393   4.58319
 Alpha virt. eigenvalues --    4.59449   4.60289   4.61161   4.63806   4.67732
 Alpha virt. eigenvalues --    4.70079   4.72006   4.74141   4.75347   4.76389
 Alpha virt. eigenvalues --    4.79541   4.81519   4.87215   4.91434   4.92746
 Alpha virt. eigenvalues --    4.94605   4.97002   4.98121   5.06697   5.09304
 Alpha virt. eigenvalues --    5.12522   5.14417   5.17617   5.17948
          Condensed to atoms (all electrons):
 Mulliken charges:
               1
     1  C    0.085290
     2  H    0.253383
     3  C   -0.314884
     4  H    0.217848
     5  C   -0.292231
     6  H    0.184125
     7  H    0.185166
     8  C   -0.250403
     9  C    0.799261
    10  O   -0.768427
    11  N   -0.990399
    12  H    0.477969
    13  H    0.417017
    14  C    0.147887
    15  H    0.281470
    16  N   -0.732458
    17  C    0.362493
    18  H    0.223031
    19  C    0.130507
    20  H    0.224553
    21  O   -0.814831
    22  H    0.493192
    23  C    0.101113
    24  H    0.231989
    25  O   -0.823418
    26  H    0.491347
    27  C    0.135202
    28  H    0.216382
    29  O   -0.714776
    30  C   -0.021620
    31  H    0.202545
    32  H    0.202436
    33  O   -0.745551
    34  P    1.623964
    35  O   -0.906953
    36  O   -0.877770
    37  O   -0.867824
    38  P    1.603129
    39  O   -0.885682
    40  O   -0.882004
    41  O   -0.765463
    42  C   -0.018219
    43  H    0.201595
    44  H    0.208009
    45  C    0.136269
    46  H    0.222145
    47  O   -0.719959
    48  C    0.087972
    49  H    0.240452
    50  O   -0.826009
    51  H    0.498391
    52  C    0.128356
    53  H    0.235304
    54  O   -0.817311
    55  H    0.491575
    56  C    0.407971
    57  H    0.236979
    58  N   -0.779193
    59  C    0.320581
    60  H    0.286086
    61  N   -0.632623
    62  C    0.056026
    63  C    0.631487
    64  N   -0.927583
    65  H    0.429885
    66  H    0.422031
    67  N   -0.700308
    68  C    0.280108
    69  H    0.238426
    70  N   -0.677026
    71  C    0.701977
 Sum of Mulliken charges =  -2.00000
 Mulliken charges with hydrogens summed into heavy atoms:
               1
     1  C    0.338673
     3  C   -0.097036
     5  C    0.077061
     8  C   -0.250403
     9  C    0.799261
    10  O   -0.768427
    11  N   -0.095413
    14  C    0.429357
    16  N   -0.732458
    17  C    0.585525
    19  C    0.355060
    21  O   -0.321640
    23  C    0.333102
    25  O   -0.332072
    27  C    0.351583
    29  O   -0.714776
    30  C    0.383360
    33  O   -0.745551
    34  P    1.623964
    35  O   -0.906953
    36  O   -0.877770
    37  O   -0.867824
    38  P    1.603129
    39  O   -0.885682
    40  O   -0.882004
    41  O   -0.765463
    42  C    0.391385
    45  C    0.358414
    47  O   -0.719959
    48  C    0.328424
    50  O   -0.327618
    52  C    0.363661
    54  O   -0.325735
    56  C    0.644950
    58  N   -0.779193
    59  C    0.606666
    61  N   -0.632623
    62  C    0.056026
    63  C    0.631487
    64  N   -0.075667
    67  N   -0.700308
    68  C    0.518533
    70  N   -0.677026
    71  C    0.701977
 Electronic spatial extent (au):  <R**2>=          39913.7582
 Charge=             -2.0000 electrons
 Dipole moment (field-independent basis, Debye):
    X=             16.3746    Y=             31.5279    Z=             -3.6494  Tot=             35.7135
 Quadrupole moment (field-independent basis, Debye-Ang):
   XX=           -418.1506   YY=           -372.1632   ZZ=           -309.5247
   XY=            -61.8386   XZ=            -27.1135   YZ=             20.0670
 Traceless Quadrupole moment (field-independent basis, Debye-Ang):
   XX=            -51.5378   YY=             -5.5504   ZZ=             57.0881
   XY=            -61.8386   XZ=            -27.1135   YZ=             20.0670
 Octapole moment (field-independent basis, Debye-Ang**2):
  XXX=            722.1737  YYY=            527.4118  ZZZ=            -34.6627  XYY=             80.5072
  XXY=            336.6810  XXZ=            213.8860  XZZ=             39.4659  YZZ=             15.3970
  YYZ=           -104.1566  XYZ=            178.8348
 Hexadecapole moment (field-independent basis, Debye-Ang**3):
 XXXX=         -50244.0123 YYYY=         -11329.6295 ZZZZ=          -2315.8092 XXXY=          -2828.9979
 XXXZ=          -1727.2336 YYYX=            109.0983 YYYZ=            434.3175 ZZZX=           -190.1094
 ZZZY=             77.7612 XXYY=          -8082.6525 XXZZ=          -7449.7994 YYZZ=          -2440.5225
 XXYZ=            321.5577 YYXZ=            292.2981 ZZXY=            -77.0653
 N-N= 6.072528408569D+03 E-N=-1.910320994961D+04  KE= 2.917348148457D+03
 1\1\NSC-N104\FOpt\RHF\6-31G(d)\C21H27N7O14P2(2-)\X_GABOA\12-Dec-2022\0
 \\#HF/6-31G* scrf=smd opt geom=check\\remark line goes here\\-2,1\C,6.
 5068704363,-2.9270359347,-0.9926611148\H,6.2285885314,-3.9621273152,-1
 .0284709977\C,7.5598356172,-2.4577293496,-1.6336995116\H,8.1554323812,
 -3.1404814812,-2.2124221744\C,7.9754330429,-1.0115553253,-1.5824943056
 \H,8.9401629986,-0.9118580783,-1.0882042237\H,8.1258665868,-0.63189072
 01,-2.5897216749\C,6.9211270977,-0.1908910158,-0.8663751156\C,7.137190
 3035,1.2731390272,-0.8604240935\O,8.1868446864,1.7272244121,-1.3061772
 15\N,6.210146348,2.10177192,-0.3615408469\H,5.2827718765,1.8407624703,
 -0.1054398879\H,6.3981907561,3.0786434039,-0.4292721832\C,5.8852494362
 ,-0.7617901829,-0.2455062241\H,5.1476233983,-0.1801254688,0.2658811045
 \N,5.6780684478,-2.1225073078,-0.1921870351\C,4.4107358666,-2.64412018
 56,0.2359307281\H,4.4719687024,-3.7198976596,0.1480108189\C,3.97371269
 3,-2.2973592751,1.6585718815\H,4.1815040464,-1.2589340687,1.8749463791
 \O,4.5561738654,-3.1238215604,2.630035544\H,5.4441870739,-2.8256382494
 ,2.791651966\C,2.4577267729,-2.4842355333,1.589177426\H,1.9466872798,-
 1.837949438,2.2851488074\O,2.0455213538,-3.7902836268,1.9185609904\H,2
 .4326644631,-4.4202223426,1.320041694\C,2.1352192709,-2.1219643409,0.1
 274079989\H,1.4702030718,-2.8708685051,-0.2849040807\O,3.3695319817,-2
 .1523356817,-0.5793229613\C,1.4903604345,-0.7698043394,-0.0735288151\H
 ,1.3612667354,-0.5840947072,-1.1301147226\H,0.5229352628,-0.7495585859
 ,0.4119905881\O,2.3324313752,0.2214836988,0.4909369925\P,2.148527584,1
 .7837506218,0.2018742687\O,1.7806608453,2.0216794985,-1.2135305377\O,3
 .3331791609,2.4555509029,0.7862004247\O,0.8534310128,2.0683710845,1.14
 09049875\P,-0.1671956379,3.3269646627,1.1280606763\O,-0.969670872,3.20
 79497276,2.3684200013\O,0.5701804757,4.5745730201,0.8254121243\O,-1.08
 00011471,3.0168770948,-0.1543920372\C,-1.82540193,1.8170554439,-0.2733
 176312\H,-1.9513550773,1.3396441028,0.6887648637\H,-1.2951372233,1.142
 7023657,-0.9310634198\C,-3.1752519091,2.1601909541,-0.8771085255\H,-3.
 0290689663,2.7295288461,-1.7849774622\O,-3.8253701973,0.9316919323,-1.
 2008578718\C,-4.1152179387,2.9050715236,0.0752830385\H,-3.5783078793,3
 .4253552199,0.851652631\O,-4.9045583527,3.8795343828,-0.5700184465\H,-
 5.2378700491,3.5525147086,-1.3995218851\C,-4.9763741396,1.7723318425,0
 .6345081863\H,-4.4492133503,1.282644716,1.4409126338\O,-6.220624687,2.
 1739110204,1.1304357029\H,-6.5544458315,2.8663471105,0.5680565331\C,-5
 .0727078295,0.8284381802,-0.5631326297\H,-5.8660839308,1.1418843008,-1
 .2249419284\N,-5.3284863968,-0.5519628205,-0.2395514193\C,-4.546874666
 6,-1.371755538,0.5330358277\H,-3.6537360158,-1.0065818519,0.994605983\
 N,-4.9857423001,-2.5735072541,0.6279070246\C,-6.1425426003,-2.57281996
 2,-0.1348545415\C,-7.0841537281,-3.5616160869,-0.4368767859\N,-6.97544
 76308,-4.8299260026,-0.0020251276\H,-6.3721148694,-5.0144523453,0.7698
 122174\H,-7.7879057798,-5.4047383019,-0.0688174395\N,-8.1111895621,-3.
 2381920417,-1.2223274154\C,-8.1911727221,-1.9960446102,-1.6826829786\H
 ,-9.0382179634,-1.7940642337,-2.3112757487\N,-7.3772238838,-0.98735356
 45,-1.4694863836\C,-6.3596671399,-1.3298994366,-0.6816403949\\Version=
 ES64L-G09RevE.01\State=1-A\HF=-2922.1877167\RMSD=8.782e-09\RMSF=5.272e
 -06\Dipole=-6.4058843,-12.3611935,-1.8946841\Quadrupole=-38.5188159,-3
 .260475,41.779291,-46.4985094,17.9412275,-16.7961658\PG=C01 [X(C21H27N
 7O14P2)]\\@


 THE REAL VOYAGE OF DISCOVERY CONSISTS NOT IN SEEKING NEW LANDSCAPES 
 BUT IN HAVING NEW EYES.
                                                    -- MARCEL PROUST
 Job cpu time:       0 days  8 hours 35 minutes  3.2 seconds.
 File lengths (MBytes):  RWF=   1137 Int=      0 D2E=      0 Chk=    268 Scr=      1
 Normal termination of Gaussian 09 at Mon Dec 12 13:40:48 2022.
