 Entering Gaussian System, Link 0=/software/sse/easybuild/prefix/software/Gaussian/09.E.01-avx-nsc1-bdist/g09/g09.orig
 Input=nah_gesp.wrap
 Output=nah_gesp.log
 Initial command:
 /software/sse/easybuild/prefix/software/Gaussian/09.E.01-avx-nsc1-bdist/g09/l1.exe "/scratch/local/Gau-116566.inp" -scrdir="/scratch/local/"
 Entering Link 1 = /software/sse/easybuild/prefix/software/Gaussian/09.E.01-avx-nsc1-bdist/g09/l1.exe PID=    116567.
  
 Copyright (c) 1988,1990,1992,1993,1995,1998,2003,2009,2015,
            Gaussian, Inc.  All Rights Reserved.
  
 This is part of the Gaussian(R) 09 program.  It is based on
 the Gaussian(R) 03 system (copyright 2003, Gaussian, Inc.),
 the Gaussian(R) 98 system (copyright 1998, Gaussian, Inc.),
 the Gaussian(R) 94 system (copyright 1995, Gaussian, Inc.),
 the Gaussian 92(TM) system (copyright 1992, Gaussian, Inc.),
 the Gaussian 90(TM) system (copyright 1990, Gaussian, Inc.),
 the Gaussian 88(TM) system (copyright 1988, Gaussian, Inc.),
 the Gaussian 86(TM) system (copyright 1986, Carnegie Mellon
 University), and the Gaussian 82(TM) system (copyright 1983,
 Carnegie Mellon University). Gaussian is a federally registered
 trademark of Gaussian, Inc.
  
 This software contains proprietary and confidential information,
 including trade secrets, belonging to Gaussian, Inc.
  
 This software is provided under written license and may be
 used, copied, transmitted, or stored only in accord with that
 written license.
  
 The following legend is applicable only to US Government
 contracts under FAR:
  
                    RESTRICTED RIGHTS LEGEND
  
 Use, reproduction and disclosure by the US Government is
 subject to restrictions as set forth in subparagraphs (a)
 and (c) of the Commercial Computer Software - Restricted
 Rights clause in FAR 52.227-19.
  
 Gaussian, Inc.
 340 Quinnipiac St., Bldg. 40, Wallingford CT 06492
  
  
 ---------------------------------------------------------------
 Warning -- This program may not be used in any manner that
 competes with the business of Gaussian, Inc. or will provide
 assistance to any competitor of Gaussian, Inc.  The licensee
 of this program is prohibited from giving any competitor of
 Gaussian, Inc. access to this program.  By using this program,
 the user acknowledges that Gaussian, Inc. is engaged in the
 business of creating and licensing software in the field of
 computational chemistry and represents and warrants to the
 licensee that it is not a competitor of Gaussian, Inc. and that
 it will not use this program in any manner prohibited above.
 ---------------------------------------------------------------
  

 Cite this work as:
 Gaussian 09, Revision E.01,
 M. J. Frisch, G. W. Trucks, H. B. Schlegel, G. E. Scuseria, 
 M. A. Robb, J. R. Cheeseman, G. Scalmani, V. Barone, B. Mennucci, 
 G. A. Petersson, H. Nakatsuji, M. Caricato, X. Li, H. P. Hratchian, 
 A. F. Izmaylov, J. Bloino, G. Zheng, J. L. Sonnenberg, M. Hada, 
 M. Ehara, K. Toyota, R. Fukuda, J. Hasegawa, M. Ishida, T. Nakajima, 
 Y. Honda, O. Kitao, H. Nakai, T. Vreven, J. A. Montgomery, Jr., 
 J. E. Peralta, F. Ogliaro, M. Bearpark, J. J. Heyd, E. Brothers, 
 K. N. Kudin, V. N. Staroverov, T. Keith, R. Kobayashi, J. Normand, 
 K. Raghavachari, A. Rendell, J. C. Burant, S. S. Iyengar, J. Tomasi, 
 M. Cossi, N. Rega, J. M. Millam, M. Klene, J. E. Knox, J. B. Cross, 
 V. Bakken, C. Adamo, J. Jaramillo, R. Gomperts, R. E. Stratmann, 
 O. Yazyev, A. J. Austin, R. Cammi, C. Pomelli, J. W. Ochterski, 
 R. L. Martin, K. Morokuma, V. G. Zakrzewski, G. A. Voth, 
 P. Salvador, J. J. Dannenberg, S. Dapprich, A. D. Daniels, 
 O. Farkas, J. B. Foresman, J. V. Ortiz, J. Cioslowski, 
 and D. J. Fox, Gaussian, Inc., Wallingford CT, 2013.
 
 ******************************************
 Gaussian 09:  ES64L-G09RevE.01 30-Nov-2015
                12-Dec-2022 
 ******************************************
 %chk=nah_gesp
 ----------------------------------------------------------------------
 #HF/6-31G* scrf=smd SCF=tight Test Pop=MK iop(6/33=2) iop(6/42=6) # io
 p(6/50=1)
 ----------------------------------------------------------------------
 1/38=1/1;
 2/12=2,17=6,18=5,40=1/2;
 3/5=1,6=6,7=1,11=9,16=1,25=1,30=1,70=32201,72=1/1,2,3;
 4//1;
 5/5=2,32=2,38=5/2;
 6/7=2,8=2,9=2,10=2,15=8,20=1,28=1,33=2,42=6,50=1/1,2;
 99/5=1,9=1/99;
 -----------------
 calc RESP charges
 -----------------
 Symbolic Z-matrix:
 Charge = -2 Multiplicity = 1
 C                    -6.47851   2.98373  -0.99175 
 H                    -6.19832   4.01893  -0.99161 
 C                    -7.52612   2.53723  -1.65737 
 H                    -8.11521   3.23934  -2.21935 
 C                    -7.94439   1.09092  -1.65664 
 H                    -8.91387   0.97713  -1.17485 
 H                    -8.08593   0.74414  -2.67693 
 C                    -6.89811   0.2457   -0.9575 
 C                    -7.11646  -1.21736  -1.00071 
 O                    -8.16257  -1.65495  -1.47064 
 N                    -6.19541  -2.06332  -0.52013 
 H                    -5.27008  -1.81238  -0.24711 
 H                    -6.3843   -3.03716  -0.62103 
 C                    -5.86724   0.79443  -0.30892 
 H                    -5.13534   0.19526   0.19034 
 N                    -5.65849   2.15234  -0.20989 
 C                    -4.39444   2.65759   0.24663 
 H                    -4.4532    3.73575   0.19282 
 C                    -3.97133   2.26442   1.66139 
 H                    -4.18274   1.21996   1.84226 
 O                    -4.56163   3.06026   2.65347 
 H                    -5.45158   2.75865   2.7971 
 C                    -2.45448   2.45066   1.61221 
 H                    -1.95099   1.78138   2.29175 
 O                    -2.04339   3.74468   1.98731 
 H                    -2.42393   4.39426   1.40579 
 C                    -2.11881   2.13503   0.14261 
 H                    -1.4488    2.8956   -0.23915 
 O                    -3.34638   2.19039  -0.57428 
 C                    -1.47415   0.78886  -0.09573 
 H                    -1.33542   0.63702  -1.1565 
 H                    -0.51137   0.75123   0.3979 
 O                    -2.32301  -0.21854   0.42864 
 P                    -2.13878  -1.77102   0.09115 
 O                    -1.758    -1.96395  -1.32768 
 O                    -3.32989  -2.45911   0.64245 
 O                    -0.853    -2.08809   1.03259 
 P                     0.16578  -3.34748   0.98876 
 O                     0.95675  -3.26991   2.23975 
 O                    -0.57063  -4.58335   0.63922 
 O                     1.09107  -2.99795  -0.27446 
 C                     1.83938  -1.79629  -0.34773 
 H                     1.95702  -1.35032   0.63037 
 H                     1.31635  -1.10015  -0.98834 
 C                     3.19432  -2.12228  -0.94962 
 H                     3.0558   -2.66184  -1.87667 
 O                     3.84933  -0.88519  -1.22755 
 C                     4.12416  -2.89915  -0.01296 
 H                     3.57918  -3.44316   0.7412 
 O                     4.91804  -3.85378  -0.6819 
 H                     5.25963  -3.50084  -1.4973 
 C                     4.98175  -1.78657   0.59047 
 H                     4.44779  -1.32212   1.40726 
 O                     6.22067  -2.20617   1.08481 
 H                     6.5587   -2.88076   0.50357 
 C                     5.09077  -0.8048   -0.57521 
 H                     5.88985  -1.09823  -1.23933 
 N                     5.34561   0.564    -0.20498 
 C                     4.55803   1.35994   0.58627 
 H                     3.66004   0.98173   1.02748 
 N                     4.99782   2.55721   0.72389 
 C                     6.16173   2.57895  -0.02766 
 C                     7.10765   3.57523  -0.28888 
 N                     6.9968    4.82909   0.18555 
 H                     6.38653   4.98978   0.95726 
 H                     7.81073   5.40426   0.14489 
 N                     8.14152   3.27538  -1.07471 
 C                     8.22393   2.04854  -1.57406 
 H                     9.07654   1.86535  -2.20089 
 N                     7.40648   1.035    -1.40106 
 C                     6.38209   1.35388  -0.61214 
 
 Stoichiometry    C21H27N7O14P2(2-)
 Framework group  C1[X(C21H27N7O14P2)]
 Deg. of freedom   207
 Full point group                 C1      NOp   1
 Largest Abelian subgroup         C1      NOp   1
 Largest concise Abelian subgroup C1      NOp   1
                         Standard orientation:                         
 ---------------------------------------------------------------------
 Center     Atomic      Atomic             Coordinates (Angstroms)
 Number     Number       Type             X           Y           Z
 ---------------------------------------------------------------------
      1          6           0       -6.478506    2.983732   -0.991747
      2          1           0       -6.198319    4.018929   -0.991608
      3          6           0       -7.526117    2.537226   -1.657372
      4          1           0       -8.115207    3.239338   -2.219349
      5          6           0       -7.944386    1.090916   -1.656642
      6          1           0       -8.913869    0.977127   -1.174852
      7          1           0       -8.085930    0.744139   -2.676933
      8          6           0       -6.898110    0.245702   -0.957501
      9          6           0       -7.116456   -1.217363   -1.000712
     10          8           0       -8.162568   -1.654947   -1.470640
     11          7           0       -6.195407   -2.063317   -0.520130
     12          1           0       -5.270082   -1.812382   -0.247106
     13          1           0       -6.384299   -3.037157   -0.621033
     14          6           0       -5.867241    0.794428   -0.308923
     15          1           0       -5.135341    0.195259    0.190339
     16          7           0       -5.658491    2.152343   -0.209885
     17          6           0       -4.394441    2.657589    0.246626
     18          1           0       -4.453202    3.735749    0.192822
     19          6           0       -3.971334    2.264424    1.661385
     20          1           0       -4.182735    1.219955    1.842261
     21          8           0       -4.561634    3.060258    2.653472
     22          1           0       -5.451581    2.758653    2.797101
     23          6           0       -2.454479    2.450663    1.612208
     24          1           0       -1.950989    1.781380    2.291752
     25          8           0       -2.043392    3.744678    1.987310
     26          1           0       -2.423932    4.394260    1.405793
     27          6           0       -2.118806    2.135034    0.142608
     28          1           0       -1.448802    2.895602   -0.239146
     29          8           0       -3.346376    2.190392   -0.574278
     30          6           0       -1.474154    0.788864   -0.095729
     31          1           0       -1.335423    0.637019   -1.156495
     32          1           0       -0.511365    0.751233    0.397902
     33          8           0       -2.323005   -0.218535    0.428635
     34         15           0       -2.138780   -1.771023    0.091150
     35          8           0       -1.757995   -1.963950   -1.327684
     36          8           0       -3.329894   -2.459113    0.642450
     37          8           0       -0.853000   -2.088086    1.032586
     38         15           0        0.165779   -3.347479    0.988758
     39          8           0        0.956746   -3.269912    2.239749
     40          8           0       -0.570627   -4.583350    0.639221
     41          8           0        1.091066   -2.997949   -0.274462
     42          6           0        1.839383   -1.796288   -0.347725
     43          1           0        1.957021   -1.350317    0.630365
     44          1           0        1.316352   -1.100147   -0.988341
     45          6           0        3.194321   -2.122282   -0.949616
     46          1           0        3.055804   -2.661839   -1.876672
     47          8           0        3.849328   -0.885192   -1.227554
     48          6           0        4.124158   -2.899146   -0.012963
     49          1           0        3.579183   -3.443163    0.741202
     50          8           0        4.918037   -3.853779   -0.681904
     51          1           0        5.259627   -3.500843   -1.497298
     52          6           0        4.981751   -1.786568    0.590465
     53          1           0        4.447786   -1.322123    1.407259
     54          8           0        6.220673   -2.206175    1.084806
     55          1           0        6.558705   -2.880763    0.503566
     56          6           0        5.090775   -0.804797   -0.575211
     57          1           0        5.889854   -1.098233   -1.239329
     58          7           0        5.345611    0.564004   -0.204975
     59          6           0        4.558028    1.359937    0.586272
     60          1           0        3.660035    0.981732    1.027482
     61          7           0        4.997820    2.557208    0.723885
     62          6           0        6.161734    2.578953   -0.027664
     63          6           0        7.107650    3.575232   -0.288883
     64          7           0        6.996801    4.829087    0.185547
     65          1           0        6.386526    4.989782    0.957256
     66          1           0        7.810728    5.404264    0.144890
     67          7           0        8.141525    3.275376   -1.074712
     68          6           0        8.223932    2.048543   -1.574057
     69          1           0        9.076537    1.865348   -2.200887
     70          7           0        7.406476    1.035004   -1.401062
     71          6           0        6.382087    1.353878   -0.612135
 ---------------------------------------------------------------------
 Rotational constants (GHZ):      0.1029789      0.0301494      0.0251216
 Standard basis: 6-31G(d) (6D, 7F)
 There are   722 symmetry adapted cartesian basis functions of A   symmetry.
 There are   722 symmetry adapted basis functions of A   symmetry.
   722 basis functions,  1388 primitive gaussians,   722 cartesian basis functions
   173 alpha electrons      173 beta electrons
       nuclear repulsion energy      6072.5106210831 Hartrees.
 NAtoms=   71 NActive=   71 NUniq=   71 SFac= 1.00D+00 NAtFMM=   60 NAOKFM=T Big=T
 Integral buffers will be    131072 words long.
 Raffenetti 1 integral format.
 Two-electron integral symmetry is turned on.
 ------------------------------------------------------------------------------
 Polarizable Continuum Model (PCM)
 =================================
 Model                : PCM (using non-symmetric T matrix).
 Atomic radii         : SMD-Coulomb.
 Polarization charges : Total charges.
 Charge compensation  : None.
 Solution method      : On-the-fly selection.
 Cavity type          : VdW (van der Waals Surface) (Alpha=1.000).
 Cavity algorithm     : GePol (No added spheres)
                        Default sphere list used, NSphG=   71.
                        Lebedev-Laikov grids with approx.  5.0 points / Ang**2.
                        Smoothing algorithm: York/Karplus (Gamma=1.0000).
                        Polarization charges: spherical gaussians, with
                                              point-specific exponents (IZeta= 3).
                        Self-potential: point-specific (ISelfS= 7).
                        Self-field    : sphere-specific E.n sum rule (ISelfD= 2).
 Solvent              : Water, Eps=  78.355300 Eps(inf)=   1.777849
 ------------------------------------------------------------------------------
 ------------------------------------------------------------------------------
 Atomic radii for non-electrostatic terms: SMD-CDS.
 ------------------------------------------------------------------------------
 Nuclear repulsion after PCM non-electrostatic terms =     6072.5284007675 Hartrees.
 One-electron integrals computed using PRISM.
 NBasis=   722 RedAO= T EigKep=  6.85D-04  NBF=   722
 NBsUse=   722 1.00D-06 EigRej= -1.00D+00 NBFU=   722
 ExpMin= 9.98D-02 ExpMax= 1.94D+04 ExpMxC= 2.91D+03 IAcc=2 IRadAn=         4 AccDes= 0.00D+00
 Harris functional with IExCor=  205 and IRadAn=       4 diagonalized for initial guess.
 HarFok:  IExCor=  205 AccDes= 0.00D+00 IRadAn=         4 IDoV= 1 UseB2=F ITyADJ=14
 ICtDFT=  3500011 ScaDFX=  1.000000  1.000000  1.000000  1.000000
 FoFCou: FMM=F IPFlag=           0 FMFlag=      100000 FMFlg1=        2001
         NFxFlg=           0 DoJE=T BraDBF=F KetDBF=T FulRan=T
         wScrn=  0.000000 ICntrl=     500 IOpCl=  0 I1Cent=   200000004 NGrid=           0
         NMat0=    1 NMatS0=      1 NMatT0=    0 NMatD0=    1 NMtDS0=    0 NMtDT0=    0
 Petite list used in FoFCou.
 Requested convergence on RMS density matrix=1.00D-08 within 128 cycles.
 Requested convergence on MAX density matrix=1.00D-06.
 Requested convergence on             energy=1.00D-06.
 No special actions if energy rises.
 Inv3:  Mode=1 IEnd=    76780443.
 Iteration    1 A*A^-1 deviation from unit magnitude is 6.44D-15 for   5050.
 Iteration    1 A*A^-1 deviation from orthogonality  is 9.20D-15 for   5019   1866.
 Iteration    1 A^-1*A deviation from unit magnitude is 6.66D-15 for   5050.
 Iteration    1 A^-1*A deviation from orthogonality  is 1.76D-10 for   2321   2306.
 Iteration    2 A*A^-1 deviation from unit magnitude is 2.78D-15 for    699.
 Iteration    2 A*A^-1 deviation from orthogonality  is 4.24D-15 for   2716    699.
 Iteration    2 A^-1*A deviation from unit magnitude is 8.88D-16 for   1682.
 Iteration    2 A^-1*A deviation from orthogonality  is 5.53D-16 for   5046   1050.
 Error on total polarization charges =  0.05757
 SCF Done:  E(RHF) =  -2922.18771667     A.U. after   14 cycles
            NFock= 14  Conv=0.54D-08     -V/T= 2.0017
 SMD-CDS (non-electrostatic) energy       (kcal/mol) =      11.16
 (included in total energy above)

 **********************************************************************

            Population analysis using the SCF density.

 **********************************************************************

 Orbital symmetries:
 BldTbl:  Degeneracy threshold= 1.00D-02
       Occupied  (A) (A) (A) (A) (A) (A) (A) (A) (A) (A) (A) (A)
                 (A) (A) (A) (A) (A) (A) (A) (A) (A) (A) (A) (A)
                 (A) (A) (A) (A) (A) (A) (A) (A) (A) (A) (A) (A)
                 (A) (A) (A) (A) (A) (A) (A) (A) (A) (A) (A) (A)
                 (A) (A) (A) (A) (A) (A) (A) (A) (A) (A) (A) (A)
                 (A) (A) (A) (A) (A) (A) (A) (A) (A) (A) (A) (A)
                 (A) (A) (A) (A) (A) (A) (A) (A) (A) (A) (A) (A)
                 (A) (A) (A) (A) (A) (A) (A) (A) (A) (A) (A) (A)
                 (A) (A) (A) (A) (A) (A) (A) (A) (A) (A) (A) (A)
                 (A) (A) (A) (A) (A) (A) (A) (A) (A) (A) (A) (A)
                 (A) (A) (A) (A) (A) (A) (A) (A) (A) (A) (A) (A)
                 (A) (A) (A) (A) (A) (A) (A) (A) (A) (A) (A) (A)
                 (A) (A) (A) (A) (A) (A) (A) (A) (A) (A) (A) (A)
                 (A) (A) (A) (A) (A) (A) (A) (A) (A) (A) (A) (A)
                 (A) (A) (A) (A) (A)
       Virtual   (A) (A) (A) (A) (A) (A) (A) (A) (A) (A) (A) (A)
                 (A) (A) (A) (A) (A) (A) (A) (A) (A) (A) (A) (A)
                 (A) (A) (A) (A) (A) (A) (A) (A) (A) (A) (A) (A)
                 (A) (A) (A) (A) (A) (A) (A) (A) (A) (A) (A) (A)
                 (A) (A) (A) (A) (A) (A) (A) (A) (A) (A) (A) (A)
                 (A) (A) (A) (A) (A) (A) (A) (A) (A) (A) (A) (A)
                 (A) (A) (A) (A) (A) (A) (A) (A) (A) (A) (A) (A)
                 (A) (A) (A) (A) (A) (A) (A) (A) (A) (A) (A) (A)
                 (A) (A) (A) (A) (A) (A) (A) (A) (A) (A) (A) (A)
                 (A) (A) (A) (A) (A) (A) (A) (A) (A) (A) (A) (A)
                 (A) (A) (A) (A) (A) (A) (A) (A) (A) (A) (A) (A)
                 (A) (A) (A) (A) (A) (A) (A) (A) (A) (A) (A) (A)
                 (A) (A) (A) (A) (A) (A) (A) (A) (A) (A) (A) (A)
                 (A) (A) (A) (A) (A) (A) (A) (A) (A) (A) (A) (A)
                 (A) (A) (A) (A) (A) (A) (A) (A) (A) (A) (A) (A)
                 (A) (A) (A) (A) (A) (A) (A) (A) (A) (A) (A) (A)
                 (A) (A) (A) (A) (A) (A) (A) (A) (A) (A) (A) (A)
                 (A) (A) (A) (A) (A) (A) (A) (A) (A) (A) (A) (A)
                 (A) (A) (A) (A) (A) (A) (A) (A) (A) (A) (A) (A)
                 (A) (A) (A) (A) (A) (A) (A) (A) (A) (A) (A) (A)
                 (A) (A) (A) (A) (A) (A) (A) (A) (A) (A) (A) (A)
                 (A) (A) (A) (A) (A) (A) (A) (A) (A) (A) (A) (A)
                 (A) (A) (A) (A) (A) (A) (A) (A) (A) (A) (A) (A)
                 (A) (A) (A) (A) (A) (A) (A) (A) (A) (A) (A) (A)
                 (A) (A) (A) (A) (A) (A) (A) (A) (A) (A) (A) (A)
                 (A) (A) (A) (A) (A) (A) (A) (A) (A) (A) (A) (A)
                 (A) (A) (A) (A) (A) (A) (A) (A) (A) (A) (A) (A)
                 (A) (A) (A) (A) (A) (A) (A) (A) (A) (A) (A) (A)
                 (A) (A) (A) (A) (A) (A) (A) (A) (A) (A) (A) (A)
                 (A) (A) (A) (A) (A) (A) (A) (A) (A) (A) (A) (A)
                 (A) (A) (A) (A) (A) (A) (A) (A) (A) (A) (A) (A)
                 (A) (A) (A) (A) (A) (A) (A) (A) (A) (A) (A) (A)
                 (A) (A) (A) (A) (A) (A) (A) (A) (A) (A) (A) (A)
                 (A) (A) (A) (A) (A) (A) (A) (A) (A) (A) (A) (A)
                 (A) (A) (A) (A) (A) (A) (A) (A) (A) (A) (A) (A)
                 (A) (A) (A) (A) (A) (A) (A) (A) (A) (A) (A) (A)
                 (A) (A) (A) (A) (A) (A) (A) (A) (A) (A) (A) (A)
                 (A) (A) (A) (A) (A) (A) (A) (A) (A) (A) (A) (A)
                 (A) (A) (A) (A) (A) (A) (A) (A) (A) (A) (A) (A)
                 (A) (A) (A) (A) (A) (A) (A) (A) (A) (A) (A) (A)
                 (A) (A) (A) (A) (A) (A) (A) (A) (A) (A) (A) (A)
                 (A) (A) (A) (A) (A) (A) (A) (A) (A) (A) (A) (A)
                 (A) (A) (A) (A) (A) (A) (A) (A) (A) (A) (A) (A)
                 (A) (A) (A) (A) (A) (A) (A) (A) (A) (A) (A) (A)
                 (A) (A) (A) (A) (A) (A) (A) (A) (A) (A) (A) (A)
                 (A) (A) (A) (A) (A) (A) (A) (A) (A)
 The electronic state is 1-A.
 Alpha  occ. eigenvalues --  -80.07296 -80.07268 -20.58253 -20.57932 -20.57837
 Alpha  occ. eigenvalues --  -20.57755 -20.57419 -20.57251 -20.57164 -20.56977
 Alpha  occ. eigenvalues --  -20.56770 -20.52183 -20.50118 -20.50064 -20.50055
 Alpha  occ. eigenvalues --  -20.50027 -15.62733 -15.59813 -15.57526 -15.56556
 Alpha  occ. eigenvalues --  -15.56519 -15.56100 -15.55385 -11.35145 -11.33622
 Alpha  occ. eigenvalues --  -11.32955 -11.31723 -11.31453 -11.30975 -11.30902
 Alpha  occ. eigenvalues --  -11.28488 -11.28451 -11.28376 -11.28315 -11.28167
 Alpha  occ. eigenvalues --  -11.28044 -11.27965 -11.27866 -11.27815 -11.26013
 Alpha  occ. eigenvalues --  -11.24799 -11.22372 -11.22304 -11.21367  -7.59537
 Alpha  occ. eigenvalues --   -7.59501  -5.49428  -5.49405  -5.49381  -5.49328
 Alpha  occ. eigenvalues --   -5.49300  -5.49269  -1.43819  -1.42755  -1.41767
 Alpha  occ. eigenvalues --   -1.40248  -1.38785  -1.38252  -1.37948  -1.37368
 Alpha  occ. eigenvalues --   -1.36365  -1.36275  -1.35903  -1.31102  -1.30865
 Alpha  occ. eigenvalues --   -1.29049  -1.28137  -1.26267  -1.26206  -1.25284
 Alpha  occ. eigenvalues --   -1.20129  -1.20084  -1.16059  -1.09220  -1.05460
 Alpha  occ. eigenvalues --   -1.04919  -1.04687  -1.04584  -1.02598  -1.02080
 Alpha  occ. eigenvalues --   -0.93802  -0.93645  -0.89506  -0.89318  -0.88075
 Alpha  occ. eigenvalues --   -0.87878  -0.86188  -0.83736  -0.82831  -0.81674
 Alpha  occ. eigenvalues --   -0.81321  -0.79732  -0.79577  -0.77128  -0.75143
 Alpha  occ. eigenvalues --   -0.74873  -0.74265  -0.73357  -0.72250  -0.71026
 Alpha  occ. eigenvalues --   -0.70722  -0.70610  -0.69229  -0.68478  -0.68418
 Alpha  occ. eigenvalues --   -0.68032  -0.67904  -0.67149  -0.66688  -0.65923
 Alpha  occ. eigenvalues --   -0.65504  -0.64926  -0.64287  -0.63360  -0.63238
 Alpha  occ. eigenvalues --   -0.62913  -0.62788  -0.62219  -0.61523  -0.61084
 Alpha  occ. eigenvalues --   -0.60841  -0.60739  -0.60365  -0.60012  -0.59776
 Alpha  occ. eigenvalues --   -0.59598  -0.59124  -0.59007  -0.58356  -0.57959
 Alpha  occ. eigenvalues --   -0.57643  -0.56669  -0.55938  -0.55526  -0.55199
 Alpha  occ. eigenvalues --   -0.55013  -0.53871  -0.53277  -0.52509  -0.51842
 Alpha  occ. eigenvalues --   -0.51663  -0.51218  -0.50976  -0.50664  -0.50167
 Alpha  occ. eigenvalues --   -0.49751  -0.49002  -0.48931  -0.48705  -0.48306
 Alpha  occ. eigenvalues --   -0.48147  -0.47774  -0.47214  -0.45999  -0.45785
 Alpha  occ. eigenvalues --   -0.45369  -0.45165  -0.44447  -0.44161  -0.43675
 Alpha  occ. eigenvalues --   -0.43376  -0.43167  -0.42909  -0.42574  -0.42266
 Alpha  occ. eigenvalues --   -0.41728  -0.41377  -0.40714  -0.40519  -0.37486
 Alpha  occ. eigenvalues --   -0.36799  -0.31206  -0.28723
 Alpha virt. eigenvalues --    0.12915   0.13172   0.15707   0.20403   0.21911
 Alpha virt. eigenvalues --    0.22058   0.22970   0.23225   0.23670   0.24489
 Alpha virt. eigenvalues --    0.25163   0.25717   0.25881   0.26346   0.27068
 Alpha virt. eigenvalues --    0.27732   0.28263   0.28796   0.29371   0.29701
 Alpha virt. eigenvalues --    0.29829   0.30453   0.30575   0.31492   0.31768
 Alpha virt. eigenvalues --    0.31875   0.32235   0.32338   0.32746   0.33410
 Alpha virt. eigenvalues --    0.33625   0.34478   0.35090   0.35234   0.36230
 Alpha virt. eigenvalues --    0.36351   0.36828   0.37085   0.37616   0.37892
 Alpha virt. eigenvalues --    0.38327   0.38686   0.38722   0.39823   0.40059
 Alpha virt. eigenvalues --    0.40411   0.40933   0.41251   0.42062   0.42280
 Alpha virt. eigenvalues --    0.42913   0.43217   0.43859   0.43955   0.44936
 Alpha virt. eigenvalues --    0.45493   0.46097   0.46320   0.47123   0.47697
 Alpha virt. eigenvalues --    0.48478   0.49053   0.49794   0.50102   0.50560
 Alpha virt. eigenvalues --    0.51330   0.52028   0.53166   0.53643   0.53871
 Alpha virt. eigenvalues --    0.54107   0.54772   0.55405   0.56016   0.56182
 Alpha virt. eigenvalues --    0.58156   0.58189   0.59183   0.59429   0.60883
 Alpha virt. eigenvalues --    0.61508   0.61908   0.62336   0.63772   0.63938
 Alpha virt. eigenvalues --    0.65273   0.66260   0.67923   0.68827   0.70567
 Alpha virt. eigenvalues --    0.72392   0.73423   0.73953   0.74855   0.75450
 Alpha virt. eigenvalues --    0.75803   0.76704   0.77048   0.77472   0.78839
 Alpha virt. eigenvalues --    0.79049   0.79749   0.80426   0.80849   0.81233
 Alpha virt. eigenvalues --    0.81391   0.81730   0.82262   0.82407   0.82547
 Alpha virt. eigenvalues --    0.83283   0.83486   0.83818   0.84071   0.85230
 Alpha virt. eigenvalues --    0.85431   0.85814   0.86066   0.86550   0.87379
 Alpha virt. eigenvalues --    0.88075   0.88436   0.88816   0.89386   0.89815
 Alpha virt. eigenvalues --    0.90354   0.90947   0.91562   0.91968   0.92712
 Alpha virt. eigenvalues --    0.93122   0.93439   0.93802   0.94260   0.94438
 Alpha virt. eigenvalues --    0.94975   0.95585   0.96515   0.96763   0.96974
 Alpha virt. eigenvalues --    0.97246   0.97712   0.98659   0.99328   0.99493
 Alpha virt. eigenvalues --    0.99750   1.00124   1.00810   1.01165   1.01736
 Alpha virt. eigenvalues --    1.02718   1.03344   1.03908   1.04696   1.05074
 Alpha virt. eigenvalues --    1.05560   1.06136   1.06757   1.06953   1.07234
 Alpha virt. eigenvalues --    1.07807   1.08374   1.08894   1.09187   1.09787
 Alpha virt. eigenvalues --    1.09930   1.10485   1.11040   1.11480   1.11828
 Alpha virt. eigenvalues --    1.11994   1.12229   1.12880   1.13474   1.14235
 Alpha virt. eigenvalues --    1.14871   1.15318   1.15415   1.15753   1.16177
 Alpha virt. eigenvalues --    1.16361   1.17102   1.17174   1.18018   1.18173
 Alpha virt. eigenvalues --    1.18622   1.18774   1.19153   1.19749   1.20094
 Alpha virt. eigenvalues --    1.20212   1.21083   1.21284   1.22072   1.22099
 Alpha virt. eigenvalues --    1.22950   1.23063   1.23682   1.24336   1.24565
 Alpha virt. eigenvalues --    1.24907   1.25428   1.25543   1.26450   1.26530
 Alpha virt. eigenvalues --    1.27818   1.28381   1.28426   1.29268   1.30207
 Alpha virt. eigenvalues --    1.30552   1.30758   1.31218   1.31495   1.31605
 Alpha virt. eigenvalues --    1.31962   1.32413   1.32935   1.33812   1.33985
 Alpha virt. eigenvalues --    1.34210   1.34331   1.34746   1.35290   1.35995
 Alpha virt. eigenvalues --    1.36560   1.36834   1.38097   1.38481   1.38767
 Alpha virt. eigenvalues --    1.40243   1.41212   1.41753   1.42374   1.43232
 Alpha virt. eigenvalues --    1.43396   1.43831   1.44314   1.44838   1.45535
 Alpha virt. eigenvalues --    1.46824   1.47197   1.48658   1.49731   1.50280
 Alpha virt. eigenvalues --    1.50772   1.50884   1.51498   1.51979   1.53116
 Alpha virt. eigenvalues --    1.53858   1.53986   1.54827   1.55203   1.55597
 Alpha virt. eigenvalues --    1.56088   1.57273   1.58428   1.58730   1.59067
 Alpha virt. eigenvalues --    1.59945   1.60357   1.60971   1.62001   1.62454
 Alpha virt. eigenvalues --    1.62892   1.64292   1.65389   1.65719   1.66786
 Alpha virt. eigenvalues --    1.67451   1.68156   1.68731   1.69192   1.69634
 Alpha virt. eigenvalues --    1.71304   1.71364   1.72439   1.72891   1.73207
 Alpha virt. eigenvalues --    1.74429   1.75969   1.76526   1.76847   1.77269
 Alpha virt. eigenvalues --    1.78376   1.79404   1.79688   1.79763   1.80429
 Alpha virt. eigenvalues --    1.80919   1.81225   1.82485   1.83210   1.84244
 Alpha virt. eigenvalues --    1.84426   1.84496   1.85598   1.86824   1.87983
 Alpha virt. eigenvalues --    1.89901   1.90203   1.91401   1.91777   1.92431
 Alpha virt. eigenvalues --    1.93180   1.93755   1.95294   1.96673   1.97316
 Alpha virt. eigenvalues --    1.97668   1.98483   1.99264   1.99739   2.01316
 Alpha virt. eigenvalues --    2.02073   2.03116   2.03252   2.04227   2.04653
 Alpha virt. eigenvalues --    2.05523   2.06347   2.06783   2.07160   2.08104
 Alpha virt. eigenvalues --    2.08269   2.08538   2.08714   2.09662   2.10248
 Alpha virt. eigenvalues --    2.10894   2.11024   2.11692   2.12306   2.12794
 Alpha virt. eigenvalues --    2.13368   2.13493   2.13775   2.14054   2.14295
 Alpha virt. eigenvalues --    2.14589   2.15414   2.15578   2.15870   2.16546
 Alpha virt. eigenvalues --    2.17264   2.17430   2.17661   2.19102   2.20370
 Alpha virt. eigenvalues --    2.20774   2.21845   2.23099   2.24067   2.24606
 Alpha virt. eigenvalues --    2.24812   2.25561   2.26151   2.26541   2.27580
 Alpha virt. eigenvalues --    2.28319   2.28946   2.29442   2.29969   2.30590
 Alpha virt. eigenvalues --    2.31150   2.32034   2.33612   2.33691   2.34479
 Alpha virt. eigenvalues --    2.34690   2.34859   2.35437   2.36032   2.37771
 Alpha virt. eigenvalues --    2.38558   2.39415   2.40324   2.41066   2.42244
 Alpha virt. eigenvalues --    2.42695   2.43433   2.44486   2.45257   2.45411
 Alpha virt. eigenvalues --    2.45935   2.46774   2.47056   2.47955   2.48495
 Alpha virt. eigenvalues --    2.48933   2.49950   2.50587   2.50841   2.52204
 Alpha virt. eigenvalues --    2.52283   2.52769   2.53128   2.53947   2.54410
 Alpha virt. eigenvalues --    2.55029   2.55780   2.56368   2.57300   2.57358
 Alpha virt. eigenvalues --    2.57732   2.58535   2.59870   2.60844   2.60917
 Alpha virt. eigenvalues --    2.61367   2.62154   2.64763   2.65252   2.65998
 Alpha virt. eigenvalues --    2.66399   2.67759   2.68031   2.68920   2.70087
 Alpha virt. eigenvalues --    2.70256   2.70526   2.72029   2.72112   2.72345
 Alpha virt. eigenvalues --    2.72770   2.73877   2.74391   2.75337   2.76248
 Alpha virt. eigenvalues --    2.78019   2.79741   2.80961   2.81132   2.81841
 Alpha virt. eigenvalues --    2.82370   2.83209   2.83414   2.84588   2.85860
 Alpha virt. eigenvalues --    2.86351   2.86898   2.87775   2.88597   2.89765
 Alpha virt. eigenvalues --    2.91611   2.92012   2.92261   2.93041   2.93980
 Alpha virt. eigenvalues --    2.94426   2.94724   2.95446   2.95879   2.96942
 Alpha virt. eigenvalues --    2.98353   2.98901   2.99789   3.01728   3.02467
 Alpha virt. eigenvalues --    3.02815   3.04103   3.04383   3.05517   3.06470
 Alpha virt. eigenvalues --    3.06643   3.08573   3.09913   3.10491   3.12150
 Alpha virt. eigenvalues --    3.12431   3.13133   3.13151   3.14194   3.15556
 Alpha virt. eigenvalues --    3.16496   3.18697   3.18852   3.20878   3.21149
 Alpha virt. eigenvalues --    3.22301   3.23175   3.23914   3.24620   3.25464
 Alpha virt. eigenvalues --    3.28447   3.29591   3.30579   3.31104   3.32131
 Alpha virt. eigenvalues --    3.33409   3.34057   3.35771   3.35950   3.39571
 Alpha virt. eigenvalues --    3.40892   3.42672   3.43131   3.46470   3.48075
 Alpha virt. eigenvalues --    3.59148   3.62749   3.69054   3.74967   3.87508
 Alpha virt. eigenvalues --    3.88375   3.90660   4.15667   4.17954   4.21665
 Alpha virt. eigenvalues --    4.24139   4.30386   4.31323   4.35061   4.36909
 Alpha virt. eigenvalues --    4.39976   4.41107   4.44910   4.45493   4.46421
 Alpha virt. eigenvalues --    4.49248   4.50462   4.52390   4.57393   4.58319
 Alpha virt. eigenvalues --    4.59449   4.60290   4.61161   4.63806   4.67732
 Alpha virt. eigenvalues --    4.70079   4.72006   4.74141   4.75347   4.76389
 Alpha virt. eigenvalues --    4.79541   4.81519   4.87215   4.91434   4.92746
 Alpha virt. eigenvalues --    4.94605   4.97002   4.98121   5.06697   5.09304
 Alpha virt. eigenvalues --    5.12522   5.14417   5.17617   5.17948
          Condensed to atoms (all electrons):
 Mulliken charges:
               1
     1  C    0.085291
     2  H    0.253383
     3  C   -0.314884
     4  H    0.217848
     5  C   -0.292231
     6  H    0.184125
     7  H    0.185166
     8  C   -0.250403
     9  C    0.799261
    10  O   -0.768426
    11  N   -0.990399
    12  H    0.477969
    13  H    0.417017
    14  C    0.147887
    15  H    0.281470
    16  N   -0.732459
    17  C    0.362494
    18  H    0.223031
    19  C    0.130507
    20  H    0.224553
    21  O   -0.814831
    22  H    0.493192
    23  C    0.101113
    24  H    0.231989
    25  O   -0.823419
    26  H    0.491347
    27  C    0.135202
    28  H    0.216381
    29  O   -0.714776
    30  C   -0.021621
    31  H    0.202545
    32  H    0.202436
    33  O   -0.745551
    34  P    1.623964
    35  O   -0.906953
    36  O   -0.877770
    37  O   -0.867824
    38  P    1.603129
    39  O   -0.885682
    40  O   -0.882004
    41  O   -0.765462
    42  C   -0.018219
    43  H    0.201595
    44  H    0.208009
    45  C    0.136269
    46  H    0.222145
    47  O   -0.719958
    48  C    0.087972
    49  H    0.240452
    50  O   -0.826009
    51  H    0.498391
    52  C    0.128356
    53  H    0.235304
    54  O   -0.817311
    55  H    0.491575
    56  C    0.407971
    57  H    0.236979
    58  N   -0.779194
    59  C    0.320581
    60  H    0.286086
    61  N   -0.632623
    62  C    0.056026
    63  C    0.631487
    64  N   -0.927584
    65  H    0.429885
    66  H    0.422031
    67  N   -0.700308
    68  C    0.280107
    69  H    0.238426
    70  N   -0.677025
    71  C    0.701977
 Sum of Mulliken charges =  -2.00000
 Mulliken charges with hydrogens summed into heavy atoms:
               1
     1  C    0.338673
     3  C   -0.097036
     5  C    0.077061
     8  C   -0.250403
     9  C    0.799261
    10  O   -0.768426
    11  N   -0.095413
    14  C    0.429357
    16  N   -0.732459
    17  C    0.585525
    19  C    0.355060
    21  O   -0.321640
    23  C    0.333102
    25  O   -0.332072
    27  C    0.351583
    29  O   -0.714776
    30  C    0.383360
    33  O   -0.745551
    34  P    1.623964
    35  O   -0.906953
    36  O   -0.877770
    37  O   -0.867824
    38  P    1.603129
    39  O   -0.885682
    40  O   -0.882004
    41  O   -0.765462
    42  C    0.391385
    45  C    0.358414
    47  O   -0.719958
    48  C    0.328424
    50  O   -0.327618
    52  C    0.363661
    54  O   -0.325736
    56  C    0.644950
    58  N   -0.779194
    59  C    0.606668
    61  N   -0.632623
    62  C    0.056026
    63  C    0.631487
    64  N   -0.075668
    67  N   -0.700308
    68  C    0.518533
    70  N   -0.677025
    71  C    0.701977
 DipInt: DoE/N= T F RetVal/Mat= T F Init=T NMatP=  1 IDeriv=0 Min/MaxMlt=  0  4
 Entering OneElI...
 OneElI was handed   132896276 working-precision words.
 Multipole integrals L=0 to 4 MinM= 0 MaxM= 0.
 Requested accuracy = 0.1000D-12
 PrtBox:  NBox=     1 Levels=  1 BoxLen=   46.38 SMaxX=       34.00
          Shift=           16.844771            8.661276            5.058670
 Box      1 Number                   0 centers from      1 to    232:
 ShPair: Thresh= 1.00D-13 NBox=     1 BxSize= 4.64D+01 RnKept= 2.32D+01
         NSMCal=                27028 NSMKep=               13190
 PrsmSu:  NPrtUS=   1 ThrOK=F IAlg=1 NPAlg=1 LenDen=           0.
 Prism:   IPart=     0 DynPar=F LinDyn=F Incr=         131.
 PRISM was handed   131537239 working-precision words and 13190 shell-pairs
 IPart=  0 NShTot=       13190 NBatch=         130 AvBLen=       101.5
 PrSmSu:  NxtVal=            132.
 Electronic moments (au):
       -346.00000000          6.44227338         12.40402544         -1.43577311
     -30219.61092649      -7984.62238607      -1709.52418769        -45.97558118
        -20.15827601         14.91934022     -14944.46657467      -1534.29049190
      -1353.59179537     -12686.02365753     -50814.32231066      30617.12264089
       3884.85571940      -1646.26149010      -4583.05567643       4935.27087379
   -4754158.72136211    -336850.72967838     -23437.90639493    -367348.80252792
    -111406.68044910     -46629.96107231        281.91447169       6730.31060147
      -4729.98041441    -653920.44883504    -162333.51236735     -42818.38352077
      38919.23023374      15369.50574310      20309.94195664
 Electronic spatial extent (au):  <R**2>=          39913.7575
 DipInt: DoE/N= F T RetVal/Mat= T F Init=T NMatP=  1 IDeriv=0 Min/MaxMlt=  0  4
 Nuclear    moments (au):
        344.00000000         -0.00000000          0.00000000         -0.00000000
      29908.72628894       7707.92808105       1479.40015090         -0.00000000
          0.00004635         -0.00002787      15959.09113669       2275.28513467
       1304.89184915      12799.13227066      51287.34598660     -30316.62157822
      -3829.40755488       1667.89377186       4436.71905348      -4684.01427362
    4620760.94791958     306770.56388191      17289.43347856     359837.80276278
     106820.88429864      46919.60460515        871.19871436      -7235.05020737
       4936.43642855     632460.99932925     142554.30279687      36338.79674715
     -38065.49394336     -14593.45446259     -20514.54963201
 Total      moments (au):
         -2.00000000          6.44227338         12.40402544         -1.43577311
       -310.88463755       -276.69430503       -230.12403679        -45.97558118
        -20.15822966         14.91931235       1014.62456202        740.99464277
        -48.69994622        113.10861313        473.02367594        300.50106267
         55.44816452         21.63228176       -146.33662295        251.25660017
    -133397.77344253     -30080.16579647      -6148.47291638      -7510.99976514
      -4585.79615046        289.64353283       1153.11318605       -504.73960590
        206.45601415     -21459.44950579     -19779.20957048      -6479.58677362
        853.73629038        776.05128051       -204.60767537
 Traceless Quadrup. (au):
        -38.31697776         -4.12664524         42.44362300        -45.97558118
        -20.15822966         14.91931235
 Charge=             -2.0000 electrons
 Dipole moment (field-independent basis, Debye):
    X=             16.3746    Y=             31.5279    Z=             -3.6494  Tot=             35.7135
 Quadrupole moment (field-independent basis, Debye-Ang):
   XX=           -418.1505   YY=           -372.1633   ZZ=           -309.5247
   XY=            -61.8387   XZ=            -27.1135   YZ=             20.0670
 Traceless Quadrupole moment (field-independent basis, Debye-Ang):
   XX=            -51.5376   YY=             -5.5505   ZZ=             57.0881
   XY=            -61.8387   XZ=            -27.1135   YZ=             20.0670
 Octapole moment (field-independent basis, Debye-Ang**2):
  XXX=            722.1706  YYY=            527.4114  ZZZ=            -34.6627  XYY=             80.5063
  XXY=            336.6800  XXZ=            213.8851  XZZ=             39.4659  YZZ=             15.3970
  YYZ=           -104.1568  XYZ=            178.8348
 Hexadecapole moment (field-independent basis, Debye-Ang**3):
 XXXX=         -50243.9948 YYYY=         -11329.6321 ZZZZ=          -2315.8096 XXXY=          -2829.0025
 XXXZ=          -1727.2306 YYYX=            109.0936 YYYZ=            434.3177 ZZZX=           -190.1091
 ZZZY=             77.7612 XXYY=          -8082.6572 XXZZ=          -7449.7983 YYZZ=          -2440.5229
 XXYZ=            321.5580 YYXZ=            292.2981 ZZXY=            -77.0651
 N-N= 6.072528400767D+03 E-N=-1.910320992910D+04  KE= 2.917348146202D+03
 Entering OneElI...
 OneElI was handed   133154782 working-precision words.
 Calculate electrostatic properties
    NBasis =   722  MinDer = 0  MaxDer = 0
    NGrid  =    71  NMatD  =   1
 Requested accuracy = 0.1000D-12
 PrtBox:  NBox=     1 Levels=  1 BoxLen=   38.65 SMaxX=       34.00
          Shift=           16.844771            8.661276            5.058670
 Box      1 Number                   0 centers from      1 to    232:
 ShPair: Thresh= 1.00D-13 NBox=     1 BxSize= 3.86D+01 RnKept= 2.02D+01
         NSMCal=                27028 NSMKep=               10746
 PrsmSu:  NPrtUS=   1 ThrOK=F IAlg=1 NPAlg=1 LenDen=           0.
 Prism:   IPart=     0 DynPar=F LinDyn=F Incr=         512.
 PRISM was handed   131953902 working-precision words and 10746 shell-pairs
 IPart=  0 NShTot=      762966 NBatch=       10748 AvBLen=        71.0
 PrSmSu:  NxtVal=            513.
 --------------------------------------------------------
       Center         ----      EFG at Nuclei      ----
                      3XX-RR        3YY-RR        3ZZ-RR
 --------------------------------------------------------
     1   Atom        0.054400      0.099018     -0.153418
     2   Atom        0.122622     -0.288657      0.166035
     3   Atom        0.032420      0.056989     -0.089409
     4   Atom        0.015997     -0.053511      0.037514
     5   Atom        0.003481     -0.040743      0.037261
     6   Atom       -0.211371      0.148365      0.063006
     7   Atom        0.148148      0.105315     -0.253463
     8   Atom        0.052993     -0.025338     -0.027654
     9   Atom        0.113468      0.349332     -0.462800
    10   Atom       -0.714322      1.189708     -0.475387
    11   Atom       -0.226612     -0.470683      0.697295
    12   Atom       -0.313647      0.118498      0.195149
    13   Atom        0.174513     -0.409330      0.234817
    14   Atom        0.153433      0.021374     -0.174807
    15   Atom       -0.052675     -0.010794      0.063469
    16   Atom       -0.123691     -0.504142      0.627833
    17   Atom       -0.278039      0.211993      0.066046
    18   Atom        0.131744     -0.290427      0.158684
    19   Atom        0.059342      0.049876     -0.109218
    20   Atom        0.133030     -0.267779      0.134750
    21   Atom       -0.900415      0.610093      0.290321
    22   Atom       -0.401924      0.171346      0.230578
    23   Atom        0.122599     -0.267714      0.145115
    24   Atom        0.055084     -0.027481     -0.027604
    25   Atom        1.060282     -1.671049      0.610767
    26   Atom        0.142700     -0.118017     -0.024683
    27   Atom       -0.236606      0.220470      0.016136
    28   Atom       -0.025918     -0.073552      0.099470
    29   Atom       -1.636840      1.473405      0.163435
    30   Atom       -0.003689     -0.171825      0.175514
    31   Atom        0.149356      0.140018     -0.289374
    32   Atom       -0.207753      0.145234      0.062519
    33   Atom        0.379264     -1.293747      0.914483
    34   Atom       -0.020772     -0.352900      0.373672
    35   Atom        0.384010      0.375868     -0.759878
    36   Atom       -0.462216      0.145788      0.316428
    37   Atom       -0.475176      0.007895      0.467281
    38   Atom       -0.147004     -0.013179      0.160184
    39   Atom        0.039085      0.453919     -0.493003
    40   Atom        0.083576     -0.486743      0.403167
    41   Atom        0.163833     -0.446238      0.282406
    42   Atom       -0.003200     -0.253319      0.256518
    43   Atom        0.139366      0.073824     -0.213190
    44   Atom        0.044376     -0.039107     -0.005269
    45   Atom        0.068996     -0.254128      0.185132
    46   Atom        0.141632      0.038996     -0.180627
    47   Atom       -0.903610     -0.254216      1.157826
    48   Atom       -0.006422     -0.034125      0.040547
    49   Atom        0.041270      0.029098     -0.070368
    50   Atom        0.581961      0.041446     -0.623407
    51   Atom        0.165799      0.123978     -0.289778
    52   Atom       -0.225649      0.102338      0.123312
    53   Atom        0.037767      0.066806     -0.104573
    54   Atom       -0.774948      0.282649      0.492299
    55   Atom        0.132277     -0.102100     -0.030177
    56   Atom       -0.078421     -0.108234      0.186655
    57   Atom       -0.087322      0.099729     -0.012407
    58   Atom       -0.055681     -0.285836      0.341517
    59   Atom        0.088729      0.107854     -0.196584
    60   Atom       -0.176366      0.090307      0.086058
    61   Atom       -0.251122      0.329805     -0.078683
    62   Atom       -0.053629      0.085020     -0.031392
    63   Atom        0.091652      0.138646     -0.230298
    64   Atom        0.022487     -0.320259      0.297772
    65   Atom       -0.018605      0.172015     -0.153410
    66   Atom       -0.210317     -0.009404      0.219721
    67   Atom        0.166861      0.154240     -0.321101
    68   Atom        0.091232      0.104590     -0.195821
    69   Atom       -0.140718      0.141063     -0.000345
    70   Atom       -0.433651      0.595950     -0.162299
    71   Atom       -0.042464      0.168455     -0.125991
 --------------------------------------------------------
                        XY            XZ            YZ
 --------------------------------------------------------
     1   Atom        0.206654      0.147946      0.089707
     2   Atom       -0.120897     -0.018741      0.005970
     3   Atom        0.038112      0.164861     -0.034812
     4   Atom        0.167640     -0.151682      0.166868
     5   Atom        0.027565     -0.032864      0.033033
     6   Atom       -0.039434      0.180469      0.026409
     7   Atom       -0.012737     -0.058748     -0.137451
     8   Atom        0.014458      0.064264      0.013416
     9   Atom        0.075834      0.321872      0.002797
    10   Atom       -0.767609     -0.120949     -0.403764
    11   Atom        0.050754     -0.411849      0.076481
    12   Atom       -0.156085     -0.162971     -0.044686
    13   Atom       -0.112732     -0.033118     -0.060877
    14   Atom        0.005502      0.359905     -0.030013
    15   Atom        0.176944     -0.162532      0.116933
    16   Atom       -0.125405     -0.658845      0.165381
    17   Atom       -0.027423      0.163689     -0.170696
    18   Atom        0.019207     -0.009942      0.022551
    19   Atom        0.155492      0.137280     -0.194112
    20   Atom       -0.088570      0.019296      0.068905
    21   Atom       -0.075213      1.144619     -1.046484
    22   Atom       -0.223142      0.121438      0.008051
    23   Atom       -0.152435      0.015361     -0.133564
    24   Atom        0.131910     -0.137690      0.181234
    25   Atom       -0.116557     -0.896592      0.335589
    26   Atom        0.189708     -0.207346      0.298905
    27   Atom        0.050683     -0.258866      0.015851
    28   Atom       -0.189428      0.097589      0.112699
    29   Atom        0.734246     -0.031452     -0.532060
    30   Atom       -0.285352      0.163010      0.183714
    31   Atom       -0.000529      0.061149     -0.058361
    32   Atom        0.010969     -0.184190      0.012758
    33   Atom       -0.680008      0.609507      0.211414
    34   Atom        0.394496     -0.659237     -0.036973
    35   Atom        0.075145      0.307037     -0.151014
    36   Atom       -0.457584      0.384821      0.250175
    37   Atom        0.871150     -0.620791      0.077530
    38   Atom        0.581547      0.600932      0.228743
    39   Atom       -0.021918     -0.580994     -0.033291
    40   Atom       -0.536355     -0.134802     -0.271661
    41   Atom       -1.159642      0.831935      0.262504
    42   Atom       -0.298601      0.061417      0.029504
    43   Atom       -0.031369     -0.042318     -0.171215
    44   Atom        0.141564     -0.131369      0.177087
    45   Atom       -0.236765      0.060105      0.138269
    46   Atom       -0.029689     -0.048597     -0.195643
    47   Atom       -1.133541     -0.898608      0.389564
    48   Atom        0.218542      0.112630     -0.211103
    49   Atom       -0.110286      0.167639      0.161489
    50   Atom        0.705536      1.427090     -0.080841
    51   Atom       -0.077545      0.238871      0.232849
    52   Atom        0.116291     -0.139372      0.114038
    53   Atom        0.105325      0.164772     -0.147102
    54   Atom        1.355154     -0.373793     -0.737736
    55   Atom        0.207488      0.138510     -0.318057
    56   Atom       -0.081888     -0.289925     -0.153045
    57   Atom        0.089017      0.200753     -0.084849
    58   Atom       -0.180779      0.472400     -0.245654
    59   Atom        0.221292     -0.179564      0.007109
    60   Atom       -0.141307      0.173229      0.064591
    61   Atom       -0.370581     -0.233902      0.500583
    62   Atom        0.027270      0.035561      0.015276
    63   Atom        0.173262     -0.338082      0.147903
    64   Atom       -0.284054      0.498274     -0.446804
    65   Atom        0.041212      0.317805     -0.098129
    66   Atom       -0.301970      0.043302     -0.012370
    67   Atom        0.617128     -0.069263     -0.249654
    68   Atom        0.077190     -0.350769      0.160559
    69   Atom        0.062423      0.223390     -0.049780
    70   Atom       -0.161817      0.034409      0.422328
    71   Atom       -0.045629     -0.198349      0.216376
 --------------------------------------------------------


 ---------------------------------------------------------------------------------
              Nuclear Quadrupole Coupling Constant in Principal Axis System
 ---------------------------------------------------------------------------------

       Atom             a.u.   MegaHertz   Gauss  10(-4) cm-1        Axes

              Baa    -0.5151     2.474     0.883     0.825 -0.4488  0.8692 -0.2073
    11 N(14)  Bbb    -0.3413     1.639     0.585     0.547  0.8207  0.4927  0.2892
              Bcc     0.8564    -4.113    -1.468    -1.372 -0.3535  0.0403  0.9346
 
              Baa    -0.5472     2.628     0.938     0.877  0.5100  0.8437  0.1672
    16 N(14)  Bbb    -0.4909     2.358     0.841     0.786  0.7001 -0.5201  0.4892
              Bcc     1.0381    -4.985    -1.779    -1.663 -0.4997  0.1324  0.8560
 
              Baa    -0.3871     1.859     0.663     0.620  0.6417  0.7493 -0.1635
    58 N(14)  Bbb    -0.3583     1.721     0.614     0.574 -0.5507  0.5985  0.5818
              Bcc     0.7454    -3.580    -1.277    -1.194  0.5338 -0.2834  0.7967
 
              Baa    -0.4339     2.084     0.744     0.695  0.7897  0.5548 -0.2618
    61 N(14)  Bbb    -0.4079     1.959     0.699     0.653  0.4878 -0.3090  0.8165
              Bcc     0.8418    -4.043    -1.443    -1.349 -0.3721  0.7725  0.5146
 
              Baa    -0.5560     2.670     0.953     0.891  0.0729  0.9005  0.4287
    64 N(14)  Bbb    -0.3486     1.674     0.597     0.558  0.8353  0.1798 -0.5196
              Bcc     0.9046    -4.344    -1.550    -1.449  0.5450 -0.3960  0.7391
 
              Baa    -0.5456     2.620     0.935     0.874 -0.5077  0.6496  0.5659
    67 N(14)  Bbb    -0.2769     1.330     0.474     0.444  0.5250 -0.2875  0.8011
              Bcc     0.8224    -3.950    -1.409    -1.318  0.6831  0.7038 -0.1950
 
              Baa    -0.5078     2.439     0.870     0.814  0.8468  0.2938 -0.4435
    70 N(14)  Bbb    -0.2912     1.398     0.499     0.466  0.5208 -0.2877  0.8038
              Bcc     0.7990    -3.837    -1.369    -1.280 -0.1086  0.9115  0.3966
 

 ---------------------------------------------------------------------------------

 No NMR shielding tensors so no spin-rotation constants.
 Leave Link  601 at Mon Dec 12 14:24:05 2022, MaxMem=   134217728 cpu:         0.5
 FitSet:  NAtFit=    71 NAtPot=    71 NAtFrz=     0 MDM=    75 TotChg=  -2.00000
 Merz-Kollman atomic radii used.
 Atom Element Radius
    1     6    1.50
    2     1    1.20
    3     6    1.50
    4     1    1.20
    5     6    1.50
    6     1    1.20
    7     1    1.20
    8     6    1.50
    9     6    1.50
   10     8    1.40
   11     7    1.50
   12     1    1.20
   13     1    1.20
   14     6    1.50
   15     1    1.20
   16     7    1.50
   17     6    1.50
   18     1    1.20
   19     6    1.50
   20     1    1.20
   21     8    1.40
   22     1    1.20
   23     6    1.50
   24     1    1.20
   25     8    1.40
   26     1    1.20
   27     6    1.50
   28     1    1.20
   29     8    1.40
   30     6    1.50
   31     1    1.20
   32     1    1.20
   33     8    1.40
   34    15    1.80
   35     8    1.40
   36     8    1.40
   37     8    1.40
   38    15    1.80
   39     8    1.40
   40     8    1.40
   41     8    1.40
   42     6    1.50
   43     1    1.20
   44     1    1.20
   45     6    1.50
   46     1    1.20
   47     8    1.40
   48     6    1.50
   49     1    1.20
   50     8    1.40
   51     1    1.20
   52     6    1.50
   53     1    1.20
   54     8    1.40
   55     1    1.20
   56     6    1.50
   57     1    1.20
   58     7    1.50
   59     6    1.50
   60     1    1.20
   61     7    1.50
   62     6    1.50
   63     6    1.50
   64     7    1.50
   65     1    1.20
   66     1    1.20
   67     7    1.50
   68     6    1.50
   69     1    1.20
   70     7    1.50
   71     6    1.50
 Generate VDW surfaces: Layer= 4 Dens= 6 Start= 1.400 Inc= 0.200

 **********************************************************************

            Electrostatic Properties Using The SCF Density

 **********************************************************************

       Atomic Center    1 is at  -6.478506  2.983732 -0.991747
       Atomic Center    2 is at  -6.198319  4.018929 -0.991608
       Atomic Center    3 is at  -7.526117  2.537226 -1.657372
       Atomic Center    4 is at  -8.115207  3.239338 -2.219349
       Atomic Center    5 is at  -7.944386  1.090916 -1.656642
       Atomic Center    6 is at  -8.913869  0.977127 -1.174852
       Atomic Center    7 is at  -8.085930  0.744139 -2.676933
       Atomic Center    8 is at  -6.898110  0.245702 -0.957501
       Atomic Center    9 is at  -7.116456 -1.217363 -1.000712
       Atomic Center   10 is at  -8.162568 -1.654947 -1.470640
       Atomic Center   11 is at  -6.195407 -2.063317 -0.520130
       Atomic Center   12 is at  -5.270082 -1.812382 -0.247106
       Atomic Center   13 is at  -6.384299 -3.037157 -0.621033
       Atomic Center   14 is at  -5.867241  0.794428 -0.308923
       Atomic Center   15 is at  -5.135341  0.195259  0.190339
       Atomic Center   16 is at  -5.658491  2.152343 -0.209885
       Atomic Center   17 is at  -4.394441  2.657589  0.246626
       Atomic Center   18 is at  -4.453202  3.735749  0.192822
       Atomic Center   19 is at  -3.971334  2.264424  1.661385
       Atomic Center   20 is at  -4.182735  1.219955  1.842261
       Atomic Center   21 is at  -4.561634  3.060258  2.653472
       Atomic Center   22 is at  -5.451581  2.758653  2.797101
       Atomic Center   23 is at  -2.454479  2.450663  1.612208
       Atomic Center   24 is at  -1.950989  1.781380  2.291752
       Atomic Center   25 is at  -2.043392  3.744678  1.987310
       Atomic Center   26 is at  -2.423932  4.394260  1.405793
       Atomic Center   27 is at  -2.118806  2.135034  0.142608
       Atomic Center   28 is at  -1.448802  2.895602 -0.239146
       Atomic Center   29 is at  -3.346376  2.190392 -0.574278
       Atomic Center   30 is at  -1.474154  0.788864 -0.095729
       Atomic Center   31 is at  -1.335423  0.637019 -1.156495
       Atomic Center   32 is at  -0.511365  0.751233  0.397902
       Atomic Center   33 is at  -2.323005 -0.218535  0.428635
       Atomic Center   34 is at  -2.138780 -1.771023  0.091150
       Atomic Center   35 is at  -1.757995 -1.963950 -1.327684
       Atomic Center   36 is at  -3.329894 -2.459113  0.642450
       Atomic Center   37 is at  -0.853000 -2.088086  1.032586
       Atomic Center   38 is at   0.165779 -3.347479  0.988758
       Atomic Center   39 is at   0.956746 -3.269912  2.239749
       Atomic Center   40 is at  -0.570627 -4.583350  0.639221
       Atomic Center   41 is at   1.091066 -2.997949 -0.274462
       Atomic Center   42 is at   1.839383 -1.796288 -0.347725
       Atomic Center   43 is at   1.957021 -1.350317  0.630365
       Atomic Center   44 is at   1.316352 -1.100147 -0.988341
       Atomic Center   45 is at   3.194321 -2.122282 -0.949616
       Atomic Center   46 is at   3.055804 -2.661839 -1.876672
       Atomic Center   47 is at   3.849328 -0.885192 -1.227554
       Atomic Center   48 is at   4.124158 -2.899146 -0.012963
       Atomic Center   49 is at   3.579183 -3.443163  0.741202
       Atomic Center   50 is at   4.918037 -3.853779 -0.681904
       Atomic Center   51 is at   5.259627 -3.500843 -1.497298
       Atomic Center   52 is at   4.981751 -1.786568  0.590465
       Atomic Center   53 is at   4.447786 -1.322123  1.407259
       Atomic Center   54 is at   6.220673 -2.206175  1.084806
       Atomic Center   55 is at   6.558705 -2.880763  0.503566
       Atomic Center   56 is at   5.090775 -0.804797 -0.575211
       Atomic Center   57 is at   5.889854 -1.098233 -1.239329
       Atomic Center   58 is at   5.345611  0.564004 -0.204975
       Atomic Center   59 is at   4.558028  1.359937  0.586272
       Atomic Center   60 is at   3.660035  0.981732  1.027482
       Atomic Center   61 is at   4.997820  2.557208  0.723885
       Atomic Center   62 is at   6.161734  2.578953 -0.027664
       Atomic Center   63 is at   7.107650  3.575232 -0.288883
       Atomic Center   64 is at   6.996801  4.829087  0.185547
       Atomic Center   65 is at   6.386526  4.989782  0.957256
       Atomic Center   66 is at   7.810728  5.404264  0.144890
       Atomic Center   67 is at   8.141525  3.275376 -1.074712
       Atomic Center   68 is at   8.223932  2.048543 -1.574057
       Atomic Center   69 is at   9.076537  1.865348 -2.200887
       Atomic Center   70 is at   7.406476  1.035004 -1.401062
       Atomic Center   71 is at   6.382087  1.353878 -0.612135
      ESP Fit Center   72 is at  -6.478506  3.787367  0.948400
      ESP Fit Center   73 is at  -6.880324  3.679701  0.948400
      ESP Fit Center   74 is at  -7.174475  3.385550  0.948400
      ESP Fit Center   75 is at  -7.282141  2.983732  0.948400
      ESP Fit Center   76 is at  -6.370857  4.145453  0.754339
      ESP Fit Center   77 is at  -6.797788  4.105892  0.754339
      ESP Fit Center   78 is at  -7.181598  3.914777  0.754339
      ESP Fit Center   79 is at  -7.470452  3.597919  0.754339
      ESP Fit Center   80 is at  -7.625338  3.198112  0.754339
      ESP Fit Center   81 is at  -7.625338  2.769352  0.754339
      ESP Fit Center   82 is at  -7.095366  4.334467  0.493177
      ESP Fit Center   83 is at  -7.450925  4.105963  0.493177
      ESP Fit Center   84 is at  -7.727704  3.786543  0.493177
      ESP Fit Center   85 is at  -7.903280  3.402084  0.493177
      ESP Fit Center   86 is at  -7.963430  2.983732  0.493177
      ESP Fit Center   87 is at  -7.903280  2.565380  0.493177
      ESP Fit Center   88 is at  -7.727704  2.180921  0.493177
      ESP Fit Center   89 is at  -7.470396  4.420733  0.174950
      ESP Fit Center   90 is at  -7.785470  4.141601  0.174950
      ESP Fit Center   91 is at  -8.024589  3.795179  0.174950
      ESP Fit Center   92 is at  -8.173854  3.401598  0.174950
      ESP Fit Center   93 is at  -7.567291  4.589570 -0.188112
      ESP Fit Center   94 is at  -7.887044  4.317970 -0.188112
      ESP Fit Center   95 is at  -8.140935  3.983982 -0.188112
      ESP Fit Center   96 is at  -7.739230  4.612453 -0.582057
      ESP Fit Center   97 is at  -8.041282  4.325331 -0.582057
      ESP Fit Center   98 is at  -4.583719  3.400806 -1.795382
      ESP Fit Center   99 is at  -4.717676  3.798379 -1.795382
      ESP Fit Center  100 is at  -4.732420  2.983732 -2.158444
      ESP Fit Center  101 is at  -4.783158  3.401598 -2.158444
      ESP Fit Center  102 is at  -4.932424  3.795179 -2.158444
      ESP Fit Center  103 is at  -4.783158  2.565866 -2.158444
      ESP Fit Center  104 is at  -4.993582  2.983732 -2.476671
      ESP Fit Center  105 is at  -5.053732  3.402084 -2.476671
      ESP Fit Center  106 is at  -5.229308  3.786543 -2.476671
      ESP Fit Center  107 is at  -5.506087  1.861501 -2.476671
      ESP Fit Center  108 is at  -5.229308  2.180921 -2.476671
      ESP Fit Center  109 is at  -5.053732  2.565380 -2.476671
      ESP Fit Center  110 is at  -5.311809  2.983732 -2.737833
      ESP Fit Center  111 is at  -5.390593  3.405192 -2.737833
      ESP Fit Center  112 is at  -5.616306  3.769731 -2.737833
      ESP Fit Center  113 is at  -5.958464  4.028117 -2.737833
      ESP Fit Center  114 is at  -6.370857  4.145453 -2.737833
      ESP Fit Center  115 is at  -5.616306  2.197733 -2.737833
      ESP Fit Center  116 is at  -5.390593  2.562272 -2.737833
      ESP Fit Center  117 is at  -5.674871  2.983732 -2.931894
      ESP Fit Center  118 is at  -5.782538  3.385550 -2.931894
      ESP Fit Center  119 is at  -6.076688  3.679701 -2.931894
      ESP Fit Center  120 is at  -5.782538  2.581914 -2.931894
      ESP Fit Center  121 is at  -5.980911  4.395491  0.631147
      ESP Fit Center  122 is at  -6.415727  4.395491  0.631147
      ESP Fit Center  123 is at  -5.778319  4.746390  0.463315
      ESP Fit Center  124 is at  -6.198319  4.858929  0.463315
      ESP Fit Center  125 is at  -6.618319  4.746390  0.463315
      ESP Fit Center  126 is at  -6.925780  4.438929  0.463315
      ESP Fit Center  127 is at  -5.668809  5.082329  0.196331
      ESP Fit Center  128 is at  -6.088710  5.201801  0.196331
      ESP Fit Center  129 is at  -6.523414  5.161520  0.196331
      ESP Fit Center  130 is at  -6.914212  4.966925  0.196331
      ESP Fit Center  131 is at  -7.208325  4.644299  0.196331
      ESP Fit Center  132 is at  -5.291190  5.156433 -0.151608
      ESP Fit Center  133 is at  -5.666776  5.373278 -0.151608
      ESP Fit Center  134 is at  -6.089593  5.469783 -0.151608
      ESP Fit Center  135 is at  -6.522070  5.437374 -0.151608
      ESP Fit Center  136 is at  -6.925780  5.278929 -0.151608
      ESP Fit Center  137 is at  -7.264853  5.008528 -0.151608
      ESP Fit Center  138 is at  -7.509159  4.650196 -0.151608
      ESP Fit Center  139 is at  -5.050858  5.166390 -0.556792
      ESP Fit Center  140 is at  -5.386941  5.424276 -0.556792
      ESP Fit Center  141 is at  -5.778319  5.586390 -0.556792
      ESP Fit Center  142 is at  -6.198319  5.641684 -0.556792
      ESP Fit Center  143 is at  -6.618319  5.586390 -0.556792
      ESP Fit Center  144 is at  -7.009697  5.424276 -0.556792
      ESP Fit Center  145 is at  -7.345780  5.166390 -0.556792
      ESP Fit Center  146 is at  -7.603666  4.830307 -0.556792
      ESP Fit Center  147 is at  -4.973652  5.168968 -0.991608
      ESP Fit Center  148 is at  -5.298130  5.437400 -0.991608
      ESP Fit Center  149 is at  -5.679171  5.616704 -0.991608
      ESP Fit Center  150 is at  -6.092831  5.695614 -0.991608
      ESP Fit Center  151 is at  -6.513120  5.669172 -0.991608
      ESP Fit Center  152 is at  -6.913628  5.539038 -0.991608
      ESP Fit Center  153 is at  -7.269191  5.313391 -0.991608
      ESP Fit Center  154 is at  -7.557468  5.006408 -0.991608
      ESP Fit Center  155 is at  -4.630858  4.438929 -1.426424
      ESP Fit Center  156 is at  -4.792972  4.830307 -1.426424
      ESP Fit Center  157 is at  -5.050858  5.166390 -1.426424
      ESP Fit Center  158 is at  -5.386941  5.424276 -1.426424
      ESP Fit Center  159 is at  -5.778319  5.586390 -1.426424
      ESP Fit Center  160 is at  -6.198319  5.641684 -1.426424
      ESP Fit Center  161 is at  -6.618319  5.586390 -1.426424
      ESP Fit Center  162 is at  -7.009697  5.424276 -1.426424
      ESP Fit Center  163 is at  -7.345780  5.166390 -1.426424
      ESP Fit Center  164 is at  -7.603666  4.830307 -1.426424
      ESP Fit Center  165 is at  -4.743396  4.018929 -1.831608
      ESP Fit Center  166 is at  -4.808035  4.447775 -1.831608
      ESP Fit Center  167 is at  -4.996206  4.838516 -1.831608
      ESP Fit Center  168 is at  -5.291190  5.156433 -1.831608
      ESP Fit Center  169 is at  -5.666776  5.373278 -1.831608
      ESP Fit Center  170 is at  -6.089593  5.469783 -1.831608
      ESP Fit Center  171 is at  -6.522070  5.437374 -1.831608
      ESP Fit Center  172 is at  -6.925780  5.278929 -1.831608
      ESP Fit Center  173 is at  -7.264853  5.008528 -1.831608
      ESP Fit Center  174 is at  -5.010380  4.018929 -2.179547
      ESP Fit Center  175 is at  -5.090599  4.448062 -2.179547
      ESP Fit Center  176 is at  -5.320421  4.819239 -2.179547
      ESP Fit Center  177 is at  -5.668809  5.082329 -2.179547
      ESP Fit Center  178 is at  -6.088710  5.201801 -2.179547
      ESP Fit Center  179 is at  -6.523414  5.161520 -2.179547
      ESP Fit Center  180 is at  -6.914212  4.966925 -2.179547
      ESP Fit Center  181 is at  -5.358319  4.018929 -2.446531
      ESP Fit Center  182 is at  -5.470858  4.438929 -2.446531
      ESP Fit Center  183 is at  -5.778319  4.746390 -2.446531
      ESP Fit Center  184 is at  -6.198319  4.858929 -2.446531
      ESP Fit Center  185 is at  -6.618319  4.746390 -2.446531
      ESP Fit Center  186 is at  -6.925780  4.438929 -2.446531
      ESP Fit Center  187 is at  -5.980911  4.395491 -2.614363
      ESP Fit Center  188 is at  -6.415727  4.395491 -2.614363
      ESP Fit Center  189 is at  -8.222086  2.939044  0.282775
      ESP Fit Center  190 is at  -8.329752  2.537226  0.282775
      ESP Fit Center  191 is at  -8.222086  2.135408  0.282775
      ESP Fit Center  192 is at  -8.229209  3.468271  0.088714
      ESP Fit Center  193 is at  -8.518063  3.151413  0.088714
      ESP Fit Center  194 is at  -8.672949  2.751606  0.088714
      ESP Fit Center  195 is at  -8.672949  2.322846  0.088714
      ESP Fit Center  196 is at  -8.498536  3.659457 -0.172448
      ESP Fit Center  197 is at  -8.775315  3.340037 -0.172448
      ESP Fit Center  198 is at  -8.950891  2.955577 -0.172448
      ESP Fit Center  199 is at  -9.011041  2.537226 -0.172448
      ESP Fit Center  200 is at  -8.145288  4.169845 -0.490675
      ESP Fit Center  201 is at  -8.518007  3.974227 -0.490675
      ESP Fit Center  202 is at  -8.833081  3.695095 -0.490675
      ESP Fit Center  203 is at  -9.072200  3.348673 -0.490675
      ESP Fit Center  204 is at  -9.221465  2.955092 -0.490675
      ESP Fit Center  205 is at  -9.272203  2.537226 -0.490675
      ESP Fit Center  206 is at  -8.244240  4.339577 -0.853737
      ESP Fit Center  207 is at  -8.614902  4.143064 -0.853737
      ESP Fit Center  208 is at  -8.934655  3.871464 -0.853737
      ESP Fit Center  209 is at  -9.188546  3.537476 -0.853737
      ESP Fit Center  210 is at  -9.364704  3.156718 -0.853737
      ESP Fit Center  211 is at  -9.454891  2.746993 -0.853737
      ESP Fit Center  212 is at  -9.491309  3.153809 -1.247682
      ESP Fit Center  213 is at  -9.575199  2.745597 -1.247682
      ESP Fit Center  214 is at  -9.626117  2.537226 -1.657372
      ESP Fit Center  215 is at  -6.219153  1.379357 -2.824069
      ESP Fit Center  216 is at  -5.980035  1.725779 -2.824069
      ESP Fit Center  217 is at  -5.830769  2.119360 -2.824069
      ESP Fit Center  218 is at  -6.041193  2.537226 -3.142296
      ESP Fit Center  219 is at  -6.101343  2.955577 -3.142296
      ESP Fit Center  220 is at  -6.276919  3.340037 -3.142296
      ESP Fit Center  221 is at  -6.553698  3.659457 -3.142296
      ESP Fit Center  222 is at  -6.276919  1.734415 -3.142296
      ESP Fit Center  223 is at  -6.101343  2.118874 -3.142296
      ESP Fit Center  224 is at  -6.359420  2.537226 -3.403458
      ESP Fit Center  225 is at  -6.438204  2.958686 -3.403458
      ESP Fit Center  226 is at  -6.663917  3.323225 -3.403458
      ESP Fit Center  227 is at  -6.663917  1.751227 -3.403458
      ESP Fit Center  228 is at  -6.438204  2.115766 -3.403458
      ESP Fit Center  229 is at  -6.722482  2.537226 -3.597519
      ESP Fit Center  230 is at  -6.830149  2.939044 -3.597519
      ESP Fit Center  231 is at  -7.124299  3.233195 -3.597519
      ESP Fit Center  232 is at  -7.124299  1.841257 -3.597519
      ESP Fit Center  233 is at  -6.830149  2.135408 -3.597519
      ESP Fit Center  234 is at  -7.116427  2.537226 -3.717021
      ESP Fit Center  235 is at  -7.321272  2.892028 -3.717021
      ESP Fit Center  236 is at  -7.730962  2.182424 -3.717021
      ESP Fit Center  237 is at  -7.321272  2.182424 -3.717021
      ESP Fit Center  238 is at  -7.526117  2.537226 -3.757372
      ESP Fit Center  239 is at  -8.440302  4.381929 -1.031410
      ESP Fit Center  240 is at  -8.831100  4.187334 -1.031410
      ESP Fit Center  241 is at  -9.125213  3.864707 -1.031410
      ESP Fit Center  242 is at  -8.006481  4.690192 -1.379349
      ESP Fit Center  243 is at  -8.438958  4.657783 -1.379349
      ESP Fit Center  244 is at  -8.842668  4.499338 -1.379349
      ESP Fit Center  245 is at  -9.181741  4.228937 -1.379349
      ESP Fit Center  246 is at  -9.426047  3.870605 -1.379349
      ESP Fit Center  247 is at  -9.553879  3.456183 -1.379349
      ESP Fit Center  248 is at  -9.553879  3.022493 -1.379349
      ESP Fit Center  249 is at  -7.695207  4.806799 -1.784533
      ESP Fit Center  250 is at  -8.115207  4.862093 -1.784533
      ESP Fit Center  251 is at  -8.535207  4.806799 -1.784533
      ESP Fit Center  252 is at  -8.926585  4.644685 -1.784533
      ESP Fit Center  253 is at  -9.262668  4.386799 -1.784533
      ESP Fit Center  254 is at  -9.520554  4.050716 -1.784533
      ESP Fit Center  255 is at  -9.682668  3.659338 -1.784533
      ESP Fit Center  256 is at  -9.737962  3.239338 -1.784533
      ESP Fit Center  257 is at  -9.682668  2.819338 -1.784533
      ESP Fit Center  258 is at  -7.215018  4.657809 -2.219349
      ESP Fit Center  259 is at  -7.596059  4.837113 -2.219349
      ESP Fit Center  260 is at  -8.009719  4.916023 -2.219349
      ESP Fit Center  261 is at  -8.430008  4.889581 -2.219349
      ESP Fit Center  262 is at  -8.830516  4.759447 -2.219349
      ESP Fit Center  263 is at  -9.186079  4.533800 -2.219349
      ESP Fit Center  264 is at  -9.474356  4.226817 -2.219349
      ESP Fit Center  265 is at  -9.677232  3.857787 -2.219349
      ESP Fit Center  266 is at  -9.781960  3.449898 -2.219349
      ESP Fit Center  267 is at  -9.781960  3.028778 -2.219349
      ESP Fit Center  268 is at  -9.677232  2.620889 -2.219349
      ESP Fit Center  269 is at  -6.967746  4.386799 -2.654165
      ESP Fit Center  270 is at  -7.303829  4.644685 -2.654165
      ESP Fit Center  271 is at  -7.695207  4.806799 -2.654165
      ESP Fit Center  272 is at  -8.115207  4.862093 -2.654165
      ESP Fit Center  273 is at  -8.535207  4.806799 -2.654165
      ESP Fit Center  274 is at  -8.926585  4.644685 -2.654165
      ESP Fit Center  275 is at  -9.262668  4.386799 -2.654165
      ESP Fit Center  276 is at  -9.520554  4.050716 -2.654165
      ESP Fit Center  277 is at  -9.682668  3.659338 -2.654165
      ESP Fit Center  278 is at  -9.737962  3.239338 -2.654165
      ESP Fit Center  279 is at  -9.682668  2.819338 -2.654165
      ESP Fit Center  280 is at  -9.520554  2.427960 -2.654165
      ESP Fit Center  281 is at  -6.913094  4.058925 -3.059349
      ESP Fit Center  282 is at  -7.208078  4.376842 -3.059349
      ESP Fit Center  283 is at  -7.583664  4.593687 -3.059349
      ESP Fit Center  284 is at  -8.006481  4.690192 -3.059349
      ESP Fit Center  285 is at  -8.438958  4.657783 -3.059349
      ESP Fit Center  286 is at  -8.842668  4.499338 -3.059349
      ESP Fit Center  287 is at  -9.181741  4.228937 -3.059349
      ESP Fit Center  288 is at  -9.426047  3.870605 -3.059349
      ESP Fit Center  289 is at  -9.553879  3.456183 -3.059349
      ESP Fit Center  290 is at  -9.553879  3.022493 -3.059349
      ESP Fit Center  291 is at  -9.426047  2.608071 -3.059349
      ESP Fit Center  292 is at  -9.181741  2.249739 -3.059349
      ESP Fit Center  293 is at  -7.007487  3.668471 -3.407288
      ESP Fit Center  294 is at  -7.237309  4.039648 -3.407288
      ESP Fit Center  295 is at  -7.585697  4.302738 -3.407288
      ESP Fit Center  296 is at  -8.005598  4.422210 -3.407288
      ESP Fit Center  297 is at  -8.440302  4.381929 -3.407288
      ESP Fit Center  298 is at  -8.831100  4.187334 -3.407288
      ESP Fit Center  299 is at  -9.125213  3.864707 -3.407288
      ESP Fit Center  300 is at  -9.282920  3.457621 -3.407288
      ESP Fit Center  301 is at  -9.282920  3.021055 -3.407288
      ESP Fit Center  302 is at  -9.125213  2.613968 -3.407288
      ESP Fit Center  303 is at  -8.831100  2.291342 -3.407288
      ESP Fit Center  304 is at  -7.275207  3.239338 -3.674272
      ESP Fit Center  305 is at  -7.387746  3.659338 -3.674272
      ESP Fit Center  306 is at  -7.695207  3.966799 -3.674272
      ESP Fit Center  307 is at  -8.115207  4.079338 -3.674272
      ESP Fit Center  308 is at  -8.535207  3.966799 -3.674272
      ESP Fit Center  309 is at  -8.842668  3.659338 -3.674272
      ESP Fit Center  310 is at  -8.955207  3.239338 -3.674272
      ESP Fit Center  311 is at  -8.842668  2.819338 -3.674272
      ESP Fit Center  312 is at  -8.535207  2.511877 -3.674272
      ESP Fit Center  313 is at  -8.115207  2.399338 -3.674272
      ESP Fit Center  314 is at  -7.680391  3.239338 -3.842104
      ESP Fit Center  315 is at  -7.897799  3.615900 -3.842104
      ESP Fit Center  316 is at  -8.332615  3.615900 -3.842104
      ESP Fit Center  317 is at  -8.550023  3.239338 -3.842104
      ESP Fit Center  318 is at  -8.332615  2.862776 -3.842104
      ESP Fit Center  319 is at  -7.897799  2.862776 -3.842104
      ESP Fit Center  320 is at  -8.115207  3.239338 -3.899349
      ESP Fit Center  321 is at  -8.149231  1.445718  0.403007
      ESP Fit Center  322 is at  -8.346204  1.786884  0.283505
      ESP Fit Center  323 is at  -9.606815  2.091166 -2.460277
      ESP Fit Center  324 is at  -9.782973  1.710408 -2.460277
      ESP Fit Center  325 is at  -6.198300  1.090916 -2.823339
      ESP Fit Center  326 is at  -9.490469  1.902363 -2.823339
      ESP Fit Center  327 is at  -9.639734  1.508782 -2.823339
      ESP Fit Center  328 is at  -6.459462  1.090916 -3.141566
      ESP Fit Center  329 is at  -8.913869  0.977127  0.505148
      ESP Fit Center  330 is at  -8.479053  0.977127  0.447903
      ESP Fit Center  331 is at  -8.696461  1.353689  0.447903
      ESP Fit Center  332 is at  -9.131277  1.353689  0.447903
      ESP Fit Center  333 is at  -9.348685  0.977127  0.447903
      ESP Fit Center  334 is at  -9.131277  0.600565  0.447903
      ESP Fit Center  335 is at  -8.696461  0.600565  0.447903
      ESP Fit Center  336 is at  -8.493869  1.704588  0.280071
      ESP Fit Center  337 is at  -8.913869  1.817127  0.280071
      ESP Fit Center  338 is at  -9.333869  1.704588  0.280071
      ESP Fit Center  339 is at  -9.641330  1.397127  0.280071
      ESP Fit Center  340 is at  -9.753869  0.977127  0.280071
      ESP Fit Center  341 is at  -9.641330  0.557127  0.280071
      ESP Fit Center  342 is at  -9.333869  0.249666  0.280071
      ESP Fit Center  343 is at  -8.913869  0.137127  0.280071
      ESP Fit Center  344 is at  -8.804260  2.159999  0.013087
      ESP Fit Center  345 is at  -9.238964  2.119718  0.013087
      ESP Fit Center  346 is at  -9.629762  1.925123  0.013087
      ESP Fit Center  347 is at  -9.923875  1.602496  0.013087
      ESP Fit Center  348 is at -10.081582  1.195410  0.013087
      ESP Fit Center  349 is at -10.081582  0.758844  0.013087
      ESP Fit Center  350 is at  -9.923875  0.351757  0.013087
      ESP Fit Center  351 is at  -9.629762  0.029131  0.013087
      ESP Fit Center  352 is at  -9.238964 -0.165464  0.013087
      ESP Fit Center  353 is at  -8.804260 -0.205745  0.013087
      ESP Fit Center  354 is at  -9.237620  2.395572 -0.334852
      ESP Fit Center  355 is at  -9.641330  2.237127 -0.334852
      ESP Fit Center  356 is at  -9.980403  1.966726 -0.334852
      ESP Fit Center  357 is at -10.224709  1.608394 -0.334852
      ESP Fit Center  358 is at -10.352541  1.193972 -0.334852
      ESP Fit Center  359 is at -10.352541  0.760282 -0.334852
      ESP Fit Center  360 is at -10.224709  0.345860 -0.334852
      ESP Fit Center  361 is at  -9.980403 -0.012472 -0.334852
      ESP Fit Center  362 is at  -9.641330 -0.282873 -0.334852
      ESP Fit Center  363 is at  -9.237620 -0.441318 -0.334852
      ESP Fit Center  364 is at  -9.725247  2.382474 -0.740036
      ESP Fit Center  365 is at -10.061330  2.124588 -0.740036
      ESP Fit Center  366 is at -10.319216  1.788505 -0.740036
      ESP Fit Center  367 is at -10.481330  1.397127 -0.740036
      ESP Fit Center  368 is at -10.536624  0.977127 -0.740036
      ESP Fit Center  369 is at -10.481330  0.557127 -0.740036
      ESP Fit Center  370 is at -10.319216  0.165749 -0.740036
      ESP Fit Center  371 is at -10.061330 -0.170334 -0.740036
      ESP Fit Center  372 is at  -9.725247 -0.428220 -0.740036
      ESP Fit Center  373 is at  -9.629178  2.497236 -1.174852
      ESP Fit Center  374 is at  -9.984741  2.271589 -1.174852
      ESP Fit Center  375 is at -10.273018  1.964606 -1.174852
      ESP Fit Center  376 is at -10.475894  1.595576 -1.174852
      ESP Fit Center  377 is at -10.580622  1.187687 -1.174852
      ESP Fit Center  378 is at -10.580622  0.766567 -1.174852
      ESP Fit Center  379 is at -10.475894  0.358678 -1.174852
      ESP Fit Center  380 is at -10.273018 -0.010352 -1.174852
      ESP Fit Center  381 is at  -9.984741 -0.317335 -1.174852
      ESP Fit Center  382 is at  -9.725247  2.382474 -1.609668
      ESP Fit Center  383 is at -10.061330  2.124588 -1.609668
      ESP Fit Center  384 is at -10.319216  1.788505 -1.609668
      ESP Fit Center  385 is at -10.481330  1.397127 -1.609668
      ESP Fit Center  386 is at -10.536624  0.977127 -1.609668
      ESP Fit Center  387 is at -10.481330  0.557127 -1.609668
      ESP Fit Center  388 is at -10.319216  0.165749 -1.609668
      ESP Fit Center  389 is at -10.061330 -0.170334 -1.609668
      ESP Fit Center  390 is at  -9.725247 -0.428220 -1.609668
      ESP Fit Center  391 is at  -9.980403  1.966726 -2.014852
      ESP Fit Center  392 is at -10.224709  1.608394 -2.014852
      ESP Fit Center  393 is at -10.352541  1.193972 -2.014852
      ESP Fit Center  394 is at -10.352541  0.760282 -2.014852
      ESP Fit Center  395 is at -10.224709  0.345860 -2.014852
      ESP Fit Center  396 is at  -9.980403 -0.012472 -2.014852
      ESP Fit Center  397 is at  -9.641330 -0.282873 -2.014852
      ESP Fit Center  398 is at  -9.923875  1.602496 -2.362791
[...]
 **** Fit      -0.069223
 **** Fit      -0.073114
 **** Fit      -0.078920
 **** Fit      -0.085573
 **** Fit      -0.090979
 **** Fit      -0.092499
 **** Fit      -0.089467
 **** Fit      -0.083962
 **** Fit      -0.078036
 **** Fit      -0.064621
 **** Fit      -0.063926
 **** Fit      -0.064970
 **** Fit      -0.067562
 **** Fit      -0.071561
 **** Fit      -0.076873
 **** Fit      -0.083341
 **** Fit      -0.090548
 **** Fit      -0.097486
 **** Fit      -0.093565
 **** Fit      -0.060680
 **** Fit      -0.061974
 **** Fit      -0.064369
 **** Fit      -0.067761
 **** Fit      -0.072153
 **** Fit      -0.077606
 **** Fit      -0.084185
 **** Fit      -0.091889
 **** Fit      -0.100489
 **** Fit      -0.060084
 **** Fit      -0.062734
 **** Fit      -0.066088
 **** Fit      -0.070196
 **** Fit      -0.075172
 **** Fit      -0.081177
 **** Fit      -0.088406
 **** Fit      -0.097081
 **** Fit      -0.061874
 **** Fit      -0.065209
 **** Fit      -0.069053
 **** Fit      -0.073541
 **** Fit      -0.078851
 **** Fit      -0.085203
 **** Fit      -0.092894
 **** Fit      -0.102358
 **** Fit      -0.063651
 **** Fit      -0.067346
 **** Fit      -0.071456
 **** Fit      -0.076173
 **** Fit      -0.081723
 **** Fit      -0.088391
 **** Fit      -0.096589
 **** Fit      -0.070480
 **** Fit      -0.074685
 **** Fit      -0.079458
 **** Fit      -0.085050
 **** Fit      -0.091781
 **** Fit      -0.100131
 **** Fit      -0.080299
 **** Fit      -0.085349
 **** Fit      -0.091334
 **** Fit      -0.098654
 **** Fit      -0.107960
 **** Fit      -0.097047
 **** Fit      -0.104890
 **** Fit      -0.064364
 **** Fit      -0.060537
 **** Fit      -0.057592
 **** Fit      -0.055584
 **** Fit      -0.054453
 **** Fit      -0.064780
 **** Fit      -0.060766
 **** Fit      -0.057613
 **** Fit      -0.055363
 **** Fit      -0.053991
 **** Fit      -0.053412
 **** Fit      -0.053488
 **** Fit      -0.069506
 **** Fit      -0.065777
 **** Fit      -0.061568
 **** Fit      -0.058214
 **** Fit      -0.055729
 **** Fit      -0.054089
 **** Fit      -0.053242
 **** Fit      -0.053118
 **** Fit      -0.053614
 **** Fit      -0.070750
 **** Fit      -0.067514
 **** Fit      -0.062827
 **** Fit      -0.059123
 **** Fit      -0.056374
 **** Fit      -0.054528
 **** Fit      -0.053530
 **** Fit      -0.053318
 **** Fit      -0.053825
 **** Fit      -0.054966
 **** Fit      -0.073164
 **** Fit      -0.070109
 **** Fit      -0.064885
 **** Fit      -0.060803
 **** Fit      -0.057765
 **** Fit      -0.055686
 **** Fit      -0.054491
 **** Fit      -0.054118
 **** Fit      -0.054515
 **** Fit      -0.055630
 **** Fit      -0.057408
 **** Fit      -0.076564
 **** Fit      -0.073640
 **** Fit      -0.067676
 **** Fit      -0.063108
 **** Fit      -0.059741
 **** Fit      -0.057433
 **** Fit      -0.056081
 **** Fit      -0.055609
 **** Fit      -0.055964
 **** Fit      -0.057106
 **** Fit      -0.059007
 **** Fit      -0.078125
 **** Fit      -0.071032
 **** Fit      -0.065794
 **** Fit      -0.062050
 **** Fit      -0.059568
 **** Fit      -0.058198
 **** Fit      -0.057838
 **** Fit      -0.058428
 **** Fit      -0.059933
 **** Fit      -0.062346
 **** Fit      -0.074987
 **** Fit      -0.068983
 **** Fit      -0.064868
 **** Fit      -0.062288
 **** Fit      -0.061027
 **** Fit      -0.060958
 **** Fit      -0.062010
 **** Fit      -0.064162
 **** Fit      -0.079606
 **** Fit      -0.072895
 **** Fit      -0.068475
 **** Fit      -0.065860
 **** Fit      -0.064774
 **** Fit      -0.065061
 **** Fit      -0.066647
 **** Fit      -0.069524
 **** Fit      -0.076694
 **** Fit      -0.072192
 **** Fit      -0.069943
 **** Fit      -0.069599
 **** Fit      -0.070987
 **** Fit      -0.080981
 **** Fit      -0.076780
 **** Fit      -0.075313
 **** Fit      -0.076188
 **** Fit      -0.085348
 **** Fit      -0.082341
 **** Fit      -0.093873
 **** Fit      -0.090871
 **** Fit      -0.087322
 **** Fit      -0.102588
 **** Fit      -0.099402
 **** Fit      -0.096524
 **** Fit      -0.093796
 **** Fit      -0.091334
 **** Fit      -0.088447
 **** Fit      -0.084586
 **** Fit      -0.100808
 **** Fit      -0.098106
 **** Fit      -0.095804
 **** Fit      -0.093658
 **** Fit      -0.091785
 **** Fit      -0.089428
 **** Fit      -0.086137
 **** Fit      -0.081411
 **** Fit      -0.097189
 **** Fit      -0.095306
 **** Fit      -0.093619
 **** Fit      -0.092117
 **** Fit      -0.090376
 **** Fit      -0.087826
 **** Fit      -0.084036
 **** Fit      -0.095979
 **** Fit      -0.094588
 **** Fit      -0.093410
 **** Fit      -0.092248
 **** Fit      -0.091105
 **** Fit      -0.089257
 **** Fit      -0.086345
 **** Fit      -0.081906
 **** Fit      -0.093675
 **** Fit      -0.093002
 **** Fit      -0.092119
 **** Fit      -0.091586
 **** Fit      -0.090460
 **** Fit      -0.088462
 **** Fit      -0.085267
 **** Fit      -0.080438
 **** Fit      -0.092465
 **** Fit      -0.092321
 **** Fit      -0.091696
 **** Fit      -0.091750
 **** Fit      -0.091280
 **** Fit      -0.090067
 **** Fit      -0.087879
 **** Fit      -0.084443
 **** Fit      -0.091344
 **** Fit      -0.090972
 **** Fit      -0.091616
 **** Fit      -0.091741
 **** Fit      -0.091164
 **** Fit      -0.089707
 **** Fit      -0.087193
 **** Fit      -0.083443
 **** Fit      -0.090016
 **** Fit      -0.089969
 **** Fit      -0.091218
 **** Fit      -0.091942
 **** Fit      -0.092000
 **** Fit      -0.091273
 **** Fit      -0.089668
 **** Fit      -0.087131
 **** Fit      -0.083689
 **** Fit      -0.088360
 **** Fit      -0.088748
 **** Fit      -0.090594
 **** Fit      -0.091885
 **** Fit      -0.092539
 **** Fit      -0.092491
 **** Fit      -0.091714
 **** Fit      -0.090229
 **** Fit      -0.088156
 **** Fit      -0.085770
 **** Fit      -0.089917
 **** Fit      -0.091750
 **** Fit      -0.092904
 **** Fit      -0.093367
 **** Fit      -0.093166
 **** Fit      -0.092390
 **** Fit      -0.091232
 **** Fit      -0.090027
 **** Fit      -0.089284
 **** Fit      -0.089329
 **** Fit      -0.091663
 **** Fit      -0.093251
 **** Fit      -0.094138
 **** Fit      -0.094406
 **** Fit      -0.094210
 **** Fit      -0.093805
 **** Fit      -0.093554
 **** Fit      -0.093903
 **** Fit      -0.095253
 **** Fit      -0.088940
 **** Fit      -0.091664
 **** Fit      -0.093602
 **** Fit      -0.094850
 **** Fit      -0.095539
 **** Fit      -0.095865
 **** Fit      -0.096102
 **** Fit      -0.096577
 **** Fit      -0.097591
 **** Fit      -0.099299
 **** Fit      -0.101598
 **** Fit      -0.104133
 **** Fit      -0.106469
 **** Fit      -0.091984
 **** Fit      -0.094161
 **** Fit      -0.095668
 **** Fit      -0.096681
 **** Fit      -0.097436
 **** Fit      -0.098212
 **** Fit      -0.099261
 **** Fit      -0.100713
 **** Fit      -0.102508
 **** Fit      -0.104424
 **** Fit      -0.106222
 **** Fit      -0.107809
 **** Fit      -0.109263
 **** Fit      -0.110708
 **** Fit      -0.112186
 **** Fit      -0.092573
 **** Fit      -0.094864
 **** Fit      -0.096547
 **** Fit      -0.097823
 **** Fit      -0.098931
 **** Fit      -0.100095
 **** Fit      -0.101445
 **** Fit      -0.102965
 **** Fit      -0.104534
 **** Fit      -0.106029
 **** Fit      -0.107414
 **** Fit      -0.108727
 **** Fit      -0.110010
 **** Fit      -0.093873
 **** Fit      -0.096210
 **** Fit      -0.098008
 **** Fit      -0.099515
 **** Fit      -0.100960
 **** Fit      -0.102446
 **** Fit      -0.103934
 **** Fit      -0.105338
 **** Fit      -0.106612
 **** Fit      -0.095285
 **** Fit      -0.097567
 **** Fit      -0.099425
 **** Fit      -0.101056
 **** Fit      -0.102554
 **** Fit      -0.103885
 **** Fit      -0.104974
 **** Fit      -0.097306
 **** Fit      -0.099516
 **** Fit      -0.101265
 **** Fit      -0.105024
 **** Fit      -0.101899
 **** Fit      -0.106264
 **** Fit      -0.102189
 **** Fit      -0.099709
 **** Fit      -0.102219
 **** Fit      -0.099058
 **** Fit      -0.097373
 **** Fit      -0.095174
 **** Fit      -0.103106
 **** Fit      -0.098992
 **** Fit      -0.096283
 **** Fit      -0.095011
 **** Fit      -0.092976
 **** Fit      -0.104117
 **** Fit      -0.099267
 **** Fit      -0.095704
 **** Fit      -0.093457
 **** Fit      -0.092542
 **** Fit      -0.090593
 **** Fit      -0.100288
 **** Fit      -0.095853
 **** Fit      -0.092651
 **** Fit      -0.090692
 **** Fit      -0.089995
 **** Fit      -0.088065
 **** Fit      -0.090018
 **** Fit      -0.096418
 **** Fit      -0.092439
 **** Fit      -0.089596
 **** Fit      -0.087901
 **** Fit      -0.087378
 **** Fit      -0.085429
 **** Fit      -0.087372
 **** Fit      -0.097890
 **** Fit      -0.093088
 **** Fit      -0.089356
 **** Fit      -0.086699
 **** Fit      -0.085136
 **** Fit      -0.084700
 **** Fit      -0.088005
 **** Fit      -0.095605
 **** Fit      -0.090683
 **** Fit      -0.112617
 **** Fit      -0.108226
 **** Fit      -0.109822
 **** Fit      -0.112150
 **** Fit      -0.093141
 **** Fit      -0.104004
 **** Fit      -0.105178
 **** Fit      -0.106804
 **** Fit      -0.109009
 **** Fit      -0.091135
 **** Fit      -0.094650
 **** Fit      -0.097459
 **** Fit      -0.099582
 **** Fit      -0.101345
 **** Fit      -0.103178
 **** Fit      -0.105375
 **** Fit      -0.107947
 **** Fit      -0.097987
 **** Fit      -0.089612
 **** Fit      -0.092986
 **** Fit      -0.095873
 **** Fit      -0.098294
 **** Fit      -0.100554
 **** Fit      -0.102899
 **** Fit      -0.105208
 **** Fit      -0.106915
 **** Fit      -0.096353
 **** Fit      -0.089774
 **** Fit      -0.093151
 **** Fit      -0.096218
 **** Fit      -0.098918
 **** Fit      -0.101102
 **** Fit      -0.101930
 **** Fit      -0.100352
 **** Fit      -0.096319
 **** Fit      -0.090949
 **** Fit      -0.094503
 **** Fit      -0.097056
 **** Fit      -0.096244
 **** Fit      -0.092017
 **** Fit      -0.093110
 **** Fit      -0.084481
 **** Fit      -0.081682
 **** Fit      -0.083143
 **** Fit      -0.086142
 **** Fit      -0.087912
 **** Fit      -0.084603
 **** Fit      -0.082488
 **** Fit      -0.081505
 **** Fit      -0.079136
 **** Fit      -0.080301
 **** Fit      -0.082698
 **** Fit      -0.086614
 **** Fit      -0.093841
 **** Fit      -0.088545
 **** Fit      -0.084598
 **** Fit      -0.081760
 **** Fit      -0.079919
 **** Fit      -0.079036
 **** Fit      -0.077143
 **** Fit      -0.078096
 **** Fit      -0.080085
 **** Fit      -0.083292
 **** Fit      -0.090324
 **** Fit      -0.085706
 **** Fit      -0.082197
 **** Fit      -0.079638
 **** Fit      -0.077952
 **** Fit      -0.077115
 **** Fit      -0.075719
 **** Fit      -0.076551
 **** Fit      -0.078349
 **** Fit      -0.081242
 **** Fit      -0.085424
 **** Fit      -0.094775
 **** Fit      -0.088950
 **** Fit      -0.084422
 **** Fit      -0.080942
 **** Fit      -0.078377
 **** Fit      -0.076661
 **** Fit      -0.075771
 **** Fit      -0.074872
 **** Fit      -0.075617
 **** Fit      -0.077304
 **** Fit      -0.080020
 **** Fit      -0.083882
 **** Fit      -0.089008
 **** Fit      -0.094633
 **** Fit      -0.088745
 **** Fit      -0.084104
 **** Fit      -0.080500
 **** Fit      -0.077815
 **** Fit      -0.075992
 **** Fit      -0.075008
 **** Fit      -0.074606
 **** Fit      -0.075259
 **** Fit      -0.076814
 **** Fit      -0.079315
 **** Fit      -0.082798
 **** Fit      -0.087252
 **** Fit      -0.094506
 **** Fit      -0.088790
 **** Fit      -0.084171
 **** Fit      -0.080525
 **** Fit      -0.077775
 **** Fit      -0.075877
 **** Fit      -0.074819
 **** Fit      -0.074924
 **** Fit      -0.075552
 **** Fit      -0.077156
 **** Fit      -0.079731
 **** Fit      -0.083219
 **** Fit      -0.087449
 **** Fit      -0.091172
 **** Fit      -0.086069
 **** Fit      -0.081939
 **** Fit      -0.078769
 **** Fit      -0.076543
 **** Fit      -0.075259
 **** Fit      -0.075829
 **** Fit      -0.076430
 **** Fit      -0.078081
 **** Fit      -0.080697
 **** Fit      -0.084088
 **** Fit      -0.087895
 **** Fit      -0.093663
 **** Fit      -0.088468
 **** Fit      -0.083985
 **** Fit      -0.080412
 **** Fit      -0.077835
 **** Fit      -0.076299
 **** Fit      -0.077323
 **** Fit      -0.077958
 **** Fit      -0.079818
 **** Fit      -0.082656
 **** Fit      -0.086027
 **** Fit      -0.091989
 **** Fit      -0.087342
 **** Fit      -0.083190
 **** Fit      -0.080000
 **** Fit      -0.078008
 **** Fit      -0.079409
 **** Fit      -0.080248
 **** Fit      -0.082712
 **** Fit      -0.086013
 **** Fit      -0.091579
 **** Fit      -0.087590
 **** Fit      -0.083480
 **** Fit      -0.080533
 **** Fit      -0.082088
 **** Fit      -0.083616
 **** Fit      -0.087012
 **** Fit      -0.089235
 **** Fit      -0.087987
 **** Fit      -0.084199
 **** Fit      -0.085362
 **** Fit      -0.108022
 **** Fit      -0.122175
 **** Fit      -0.116053
 **** Fit      -0.111398
 **** Fit      -0.122302
 **** Fit      -0.116568
 **** Fit      -0.112001
 **** Fit      -0.108366
 **** Fit      -0.122477
 **** Fit      -0.117114
 **** Fit      -0.112648
 **** Fit      -0.108810
 **** Fit      -0.120516
 **** Fit      -0.116432
 **** Fit      -0.112640
 **** Fit      -0.109031
 **** Fit      -0.105700
 **** Fit      -0.114892
 **** Fit      -0.112207
 **** Fit      -0.109141
 **** Fit      -0.105910
 **** Fit      -0.111848
 **** Fit      -0.112120
 **** Fit      -0.110936
 **** Fit      -0.108768
 **** Fit      -0.105982
 **** Fit      -0.102885
 **** Fit      -0.105830
 **** Fit      -0.108610
 **** Fit      -0.109177
 **** Fit      -0.108174
 **** Fit      -0.106092
 **** Fit      -0.103301
 **** Fit      -0.103422
 **** Fit      -0.106484
 **** Fit      -0.107262
 **** Fit      -0.106360
 **** Fit      -0.104251
 **** Fit      -0.101299
 **** Fit      -0.102665
 **** Fit      -0.105376
 **** Fit      -0.105963
 **** Fit      -0.104925
 **** Fit      -0.102658
 **** Fit      -0.099471
 **** Fit      -0.102895
 **** Fit      -0.104923
 **** Fit      -0.105101
 **** Fit      -0.103797
 **** Fit      -0.101311
 **** Fit      -0.097870
 **** Fit      -0.102672
 **** Fit      -0.104616
 **** Fit      -0.104799
 **** Fit      -0.103496
 **** Fit      -0.100947
 **** Fit      -0.097335
 **** Fit      -0.102850
 **** Fit      -0.104701
 **** Fit      -0.104991
 **** Fit      -0.103820
 **** Fit      -0.101346
 **** Fit      -0.097712
 **** Fit      -0.104361
 **** Fit      -0.105508
 **** Fit      -0.105616
 **** Fit      -0.104488
 **** Fit      -0.102131
 **** Fit      -0.098619
 **** Fit      -0.113627
 **** Fit      -0.116302
 **** Fit      -0.119209
 **** Fit      -0.122151
 **** Fit      -0.124833
 **** Fit      -0.126683
 **** Fit      -0.126874
 **** Fit      -0.124714
 **** Fit      -0.107279
 **** Fit      -0.107170
 **** Fit      -0.106870
 **** Fit      -0.105780
 **** Fit      -0.103639
 **** Fit      -0.100398
 **** Fit      -0.113662
 **** Fit      -0.116488
 **** Fit      -0.119231
 **** Fit      -0.121552
 **** Fit      -0.122952
 **** Fit      -0.122870
 **** Fit      -0.121046
 **** Fit      -0.117918
 **** Fit      -0.114527
 **** Fit      -0.111830
 **** Fit      -0.110079
 **** Fit      -0.108840
 **** Fit      -0.107450
 **** Fit      -0.105405
 **** Fit      -0.102462
 **** Fit      -0.098590
 **** Fit      -0.113160
 **** Fit      -0.116046
 **** Fit      -0.118381
 **** Fit      -0.119644
 **** Fit      -0.119386
 **** Fit      -0.117643
 **** Fit      -0.115110
 **** Fit      -0.112628
 **** Fit      -0.110483
 **** Fit      -0.108336
 **** Fit      -0.105672
 **** Fit      -0.102194
 **** Fit      -0.097938
 **** Fit      -0.111453
 **** Fit      -0.114235
 **** Fit      -0.116091
 **** Fit      -0.116546
 **** Fit      -0.115520
 **** Fit      -0.113520
 **** Fit      -0.111149
 **** Fit      -0.108518
 **** Fit      -0.105368
 **** Fit      -0.101588
 **** Fit      -0.110848
 **** Fit      -0.113001
 **** Fit      -0.113285
 **** Fit      -0.111772
 **** Fit      -0.109101
 **** Fit      -0.105640
 **** Fit      -0.101766
 **** Fit      -0.102711
 **** Fit      -0.106891
 **** Fit      -0.109797
 **** Fit      -0.109313
 **** Fit      -0.105979
 **** Fit      -0.106393
 **** Fit      -0.122622
 **** Fit      -0.117628
 **** Fit      -0.127623
 **** Fit      -0.120686
 **** Fit      -0.115388
 **** Fit      -0.109579
 **** Fit      -0.124180
 **** Fit      -0.117837
 **** Fit      -0.113106
 **** Fit      -0.108080
 **** Fit      -0.121725
 **** Fit      -0.115949
 **** Fit      -0.111498
 **** Fit      -0.128625
 **** Fit      -0.122565
 **** Fit      -0.125623
 **** Fit      -0.129557
 **** Fit      -0.117383
 **** Fit      -0.119865
 **** Fit      -0.122770
 **** Fit      -0.126255
 **** Fit      -0.130362
 **** Fit      -0.117065
 **** Fit      -0.119791
 **** Fit      -0.122973
 **** Fit      -0.126468
 **** Fit      -0.129667
 -----------------------------------------------------------------
 Leave Link  602 at Mon Dec 12 14:24:09 2022, MaxMem=   134217728 cpu:         4.0

 Test job not archived.
 1\1\NSC-N121\SP\RHF\6-31G(d)\C21H27N7O14P2(2-)\X_GABOA\12-Dec-2022\0\\
 #HF/6-31G* scrf=smd SCF=tight Test Pop=MK iop(6/33=2) iop(6/42=6) # io
 p(6/50=1)\\calc RESP charges\\-2,1\C,0,-6.478506,2.983732,-0.991747\H,
 0,-6.198319,4.018929,-0.991608\C,0,-7.526117,2.537226,-1.657372\H,0,-8
 .115207,3.239338,-2.219349\C,0,-7.944386,1.090916,-1.656642\H,0,-8.913
 869,0.977127,-1.174852\H,0,-8.08593,0.744139,-2.676933\C,0,-6.89811,0.
 245702,-0.957501\C,0,-7.116456,-1.217363,-1.000712\O,0,-8.162568,-1.65
 4947,-1.47064\N,0,-6.195407,-2.063317,-0.52013\H,0,-5.270082,-1.812382
 ,-0.247106\H,0,-6.384299,-3.037157,-0.621033\C,0,-5.867241,0.794428,-0
 .308923\H,0,-5.135341,0.195259,0.190339\N,0,-5.658491,2.152343,-0.2098
 85\C,0,-4.394441,2.657589,0.246626\H,0,-4.453202,3.735749,0.192822\C,0
 ,-3.971334,2.264424,1.661385\H,0,-4.182735,1.219955,1.842261\O,0,-4.56
 1634,3.060258,2.653472\H,0,-5.451581,2.758653,2.797101\C,0,-2.454479,2
 .450663,1.612208\H,0,-1.950989,1.78138,2.291752\O,0,-2.043392,3.744678
 ,1.98731\H,0,-2.423932,4.39426,1.405793\C,0,-2.118806,2.135034,0.14260
 8\H,0,-1.448802,2.895602,-0.239146\O,0,-3.346376,2.190392,-0.574278\C,
 0,-1.474154,0.788864,-0.095729\H,0,-1.335423,0.637019,-1.156495\H,0,-0
 .511365,0.751233,0.397902\O,0,-2.323005,-0.218535,0.428635\P,0,-2.1387
 8,-1.771023,0.09115\O,0,-1.757995,-1.96395,-1.327684\O,0,-3.329894,-2.
 459113,0.64245\O,0,-0.853,-2.088086,1.032586\P,0,0.165779,-3.347479,0.
 988758\O,0,0.956746,-3.269912,2.239749\O,0,-0.570627,-4.58335,0.639221
 \O,0,1.091066,-2.997949,-0.274462\C,0,1.839383,-1.796288,-0.347725\H,0
 ,1.957021,-1.350317,0.630365\H,0,1.316352,-1.100147,-0.988341\C,0,3.19
 4321,-2.122282,-0.949616\H,0,3.055804,-2.661839,-1.876672\O,0,3.849328
 ,-0.885192,-1.227554\C,0,4.124158,-2.899146,-0.012963\H,0,3.579183,-3.
 443163,0.741202\O,0,4.918037,-3.853779,-0.681904\H,0,5.259627,-3.50084
 3,-1.497298\C,0,4.981751,-1.786568,0.590465\H,0,4.447786,-1.322123,1.4
 07259\O,0,6.220673,-2.206175,1.084806\H,0,6.558705,-2.880763,0.503566\
 C,0,5.090775,-0.804797,-0.575211\H,0,5.889854,-1.098233,-1.239329\N,0,
 5.345611,0.564004,-0.204975\C,0,4.558028,1.359937,0.586272\H,0,3.66003
 5,0.981732,1.027482\N,0,4.99782,2.557208,0.723885\C,0,6.161734,2.57895
 3,-0.027664\C,0,7.10765,3.575232,-0.288883\N,0,6.996801,4.829087,0.185
 547\H,0,6.386526,4.989782,0.957256\H,0,7.810728,5.404264,0.14489\N,0,8
 .141525,3.275376,-1.074712\C,0,8.223932,2.048543,-1.574057\H,0,9.07653
 7,1.865348,-2.200887\N,0,7.406476,1.035004,-1.401062\C,0,6.382087,1.35
 3878,-0.612135\\Version=ES64L-G09RevE.01\State=1-A\HF=-2922.1877167\RM
 SD=5.434e-09\Dipole=6.4422734,12.4040254,-1.4357731\Quadrupole=-38.316
 9782,-4.1266448,42.443623,-45.975581,-20.1582296,14.9193124\PG=C01 [X(
 C21H27N7O14P2)]\\@


 THERE'S NOTHING SO GREAT AS THE GREAT OUTDOORS.

                                       -- ZIGGY
 Job cpu time:       0 days  0 hours 11 minutes 51.1 seconds.
 File lengths (MBytes):  RWF=    699 Int=      0 D2E=      0 Chk=     32 Scr=      1
 Normal termination of Gaussian 09 at Mon Dec 12 14:24:09 2022.
