 Entering Gaussian System, Link 0=/software/sse/easybuild/prefix/software/Gaussian/09.E.01-avx-nsc1-bdist/g09/g09.orig
 Input=tyr.wrap
 Output=tyr.log
 Initial command:
 /software/sse/easybuild/prefix/software/Gaussian/09.E.01-avx-nsc1-bdist/g09/l1.exe "/scratch/local/Gau-235393.inp" -scrdir="/scratch/local/"
 Entering Link 1 = /software/sse/easybuild/prefix/software/Gaussian/09.E.01-avx-nsc1-bdist/g09/l1.exe PID=    235394.
  
 Copyright (c) 1988,1990,1992,1993,1995,1998,2003,2009,2015,
            Gaussian, Inc.  All Rights Reserved.
  
 This is part of the Gaussian(R) 09 program.  It is based on
 the Gaussian(R) 03 system (copyright 2003, Gaussian, Inc.),
 the Gaussian(R) 98 system (copyright 1998, Gaussian, Inc.),
 the Gaussian(R) 94 system (copyright 1995, Gaussian, Inc.),
 the Gaussian 92(TM) system (copyright 1992, Gaussian, Inc.),
 the Gaussian 90(TM) system (copyright 1990, Gaussian, Inc.),
 the Gaussian 88(TM) system (copyright 1988, Gaussian, Inc.),
 the Gaussian 86(TM) system (copyright 1986, Carnegie Mellon
 University), and the Gaussian 82(TM) system (copyright 1983,
 Carnegie Mellon University). Gaussian is a federally registered
 trademark of Gaussian, Inc.
  
 This software contains proprietary and confidential information,
 including trade secrets, belonging to Gaussian, Inc.
  
 This software is provided under written license and may be
 used, copied, transmitted, or stored only in accord with that
 written license.
  
 The following legend is applicable only to US Government
 contracts under FAR:
  
                    RESTRICTED RIGHTS LEGEND
  
 Use, reproduction and disclosure by the US Government is
 subject to restrictions as set forth in subparagraphs (a)
 and (c) of the Commercial Computer Software - Restricted
 Rights clause in FAR 52.227-19.
  
 Gaussian, Inc.
 340 Quinnipiac St., Bldg. 40, Wallingford CT 06492
  
  
 ---------------------------------------------------------------
 Warning -- This program may not be used in any manner that
 competes with the business of Gaussian, Inc. or will provide
 assistance to any competitor of Gaussian, Inc.  The licensee
 of this program is prohibited from giving any competitor of
 Gaussian, Inc. access to this program.  By using this program,
 the user acknowledges that Gaussian, Inc. is engaged in the
 business of creating and licensing software in the field of
 computational chemistry and represents and warrants to the
 licensee that it is not a competitor of Gaussian, Inc. and that
 it will not use this program in any manner prohibited above.
 ---------------------------------------------------------------
  

 Cite this work as:
 Gaussian 09, Revision E.01,
 M. J. Frisch, G. W. Trucks, H. B. Schlegel, G. E. Scuseria, 
 M. A. Robb, J. R. Cheeseman, G. Scalmani, V. Barone, B. Mennucci, 
 G. A. Petersson, H. Nakatsuji, M. Caricato, X. Li, H. P. Hratchian, 
 A. F. Izmaylov, J. Bloino, G. Zheng, J. L. Sonnenberg, M. Hada, 
 M. Ehara, K. Toyota, R. Fukuda, J. Hasegawa, M. Ishida, T. Nakajima, 
 Y. Honda, O. Kitao, H. Nakai, T. Vreven, J. A. Montgomery, Jr., 
 J. E. Peralta, F. Ogliaro, M. Bearpark, J. J. Heyd, E. Brothers, 
 K. N. Kudin, V. N. Staroverov, T. Keith, R. Kobayashi, J. Normand, 
 K. Raghavachari, A. Rendell, J. C. Burant, S. S. Iyengar, J. Tomasi, 
 M. Cossi, N. Rega, J. M. Millam, M. Klene, J. E. Knox, J. B. Cross, 
 V. Bakken, C. Adamo, J. Jaramillo, R. Gomperts, R. E. Stratmann, 
 O. Yazyev, A. J. Austin, R. Cammi, C. Pomelli, J. W. Ochterski, 
 R. L. Martin, K. Morokuma, V. G. Zakrzewski, G. A. Voth, 
 P. Salvador, J. J. Dannenberg, S. Dapprich, A. D. Daniels, 
 O. Farkas, J. B. Foresman, J. V. Ortiz, J. Cioslowski, 
 and D. J. Fox, Gaussian, Inc., Wallingford CT, 2013.
 
 ******************************************
 Gaussian 09:  ES64L-G09RevE.01 30-Nov-2015
                12-Dec-2022 
 ******************************************
 %nproc=16
 Will use up to   16 processors via shared memory.
 %chk=tyr
 -----------------------
 #HF/6-31G* scrf=smd opt
 -----------------------
 1/14=-1,18=20,19=15,38=1/1,3;
 2/9=110,12=2,17=6,18=5,40=1/2;
 3/5=1,6=6,7=1,11=9,16=1,25=1,30=1,70=32201,71=1,72=1/1,2,3;
 4//1;
 5/5=2,38=5/2;
 6/7=2,8=2,9=2,10=2,28=1/1;
 7//1,2,3,16;
 1/14=-1,18=20,19=15/3(2);
 2/9=110/2;
 99//99;
 2/9=110/2;
 3/5=1,6=6,7=1,11=9,16=1,25=1,30=1,70=32205,71=1/1,2,3;
 4/5=5,16=3,69=1/1;
 5/5=2,38=5/2;
 7//1,2,3,16;
 1/14=-1,18=20,19=15/3(-5);
 2/9=110/2;
 6/7=2,8=2,9=2,10=2,19=2,28=1/1;
 99/9=1/99;
 ---------------------
 remark line goes here
 ---------------------
 Symbolic Z-matrix:
 Charge =  0 Multiplicity = 1
 C                    -28.578   -6.884    -22.134 
 C                    -27.553   -7.961    -22.471 
 H                    -27.269   -8.514    -21.576 
 H                    -28.07    -8.616    -23.172 
 C                    -26.324   -7.414    -23.132 
 C                    -25.378   -6.736    -22.39 
 H                    -25.385   -6.895    -21.322 
 C                    -24.198   -6.301    -22.955 
 H                    -23.361   -6.036    -22.327 
 C                    -24.048   -6.344    -24.323 
 O                    -22.922   -5.792    -24.86 
 H                    -22.82    -5.982    -25.78 
 C                    -26.178   -7.426    -24.508 
 H                    -27.077   -7.438    -25.106 
 C                    -25.026   -6.941    -25.098 
 H                    -24.759   -7.296    -26.082 
 H                    -28.849   -6.343    -23.041 
 H                    -28.151   -6.19     -21.411 
 H                    -29.468   -7.35     -21.71 
 

 GradGradGradGradGradGradGradGradGradGradGradGradGradGradGradGradGradGrad
 Berny optimization.
 Initialization pass.
                           ----------------------------
                           !    Initial Parameters    !
                           ! (Angstroms and Degrees)  !
 --------------------------                            --------------------------
 ! Name  Definition              Value          Derivative Info.                !
 --------------------------------------------------------------------------------
 ! R1    R(1,2)                  1.5245         estimate D2E/DX2                !
 ! R2    R(1,17)                 1.0903         estimate D2E/DX2                !
 ! R3    R(1,18)                 1.0894         estimate D2E/DX2                !
 ! R4    R(1,19)                 1.0904         estimate D2E/DX2                !
 ! R5    R(2,3)                  1.0897         estimate D2E/DX2                !
 ! R6    R(2,4)                  1.0898         estimate D2E/DX2                !
 ! R7    R(2,5)                  1.4989         estimate D2E/DX2                !
 ! R8    R(5,6)                  1.3803         estimate D2E/DX2                !
 ! R9    R(5,13)                 1.3838         estimate D2E/DX2                !
 ! R10   R(6,7)                  1.0798         estimate D2E/DX2                !
 ! R11   R(6,8)                  1.3787         estimate D2E/DX2                !
 ! R12   R(8,9)                  1.0794         estimate D2E/DX2                !
 ! R13   R(8,10)                 1.3769         estimate D2E/DX2                !
 ! R14   R(10,11)                1.3642         estimate D2E/DX2                !
 ! R15   R(10,15)                1.3833         estimate D2E/DX2                !
 ! R16   R(11,12)                0.9449         estimate D2E/DX2                !
 ! R17   R(13,14)                1.0798         estimate D2E/DX2                !
 ! R18   R(13,15)                1.3822         estimate D2E/DX2                !
 ! R19   R(15,16)                1.0796         estimate D2E/DX2                !
 ! A1    A(2,1,17)             109.4973         estimate D2E/DX2                !
 ! A2    A(2,1,18)             109.4653         estimate D2E/DX2                !
 ! A3    A(2,1,19)             109.4396         estimate D2E/DX2                !
 ! A4    A(17,1,18)            109.477          estimate D2E/DX2                !
 ! A5    A(17,1,19)            109.4295         estimate D2E/DX2                !
 ! A6    A(18,1,19)            109.5187         estimate D2E/DX2                !
 ! A7    A(1,2,3)              110.6205         estimate D2E/DX2                !
 ! A8    A(1,2,4)              104.3488         estimate D2E/DX2                !
 ! A9    A(1,2,5)              113.0146         estimate D2E/DX2                !
 ! A10   A(3,2,4)              110.2993         estimate D2E/DX2                !
 ! A11   A(3,2,5)              109.4937         estimate D2E/DX2                !
 ! A12   A(4,2,5)              108.9446         estimate D2E/DX2                !
 ! A13   A(2,5,6)              120.276          estimate D2E/DX2                !
 ! A14   A(2,5,13)             121.4579         estimate D2E/DX2                !
 ! A15   A(6,5,13)             117.8073         estimate D2E/DX2                !
 ! A16   A(5,6,7)              117.0603         estimate D2E/DX2                !
 ! A17   A(5,6,8)              121.4175         estimate D2E/DX2                !
 ! A18   A(7,6,8)              117.2152         estimate D2E/DX2                !
 ! A19   A(6,8,9)              120.178          estimate D2E/DX2                !
 ! A20   A(6,8,10)             119.3767         estimate D2E/DX2                !
 ! A21   A(9,8,10)             120.0814         estimate D2E/DX2                !
 ! A22   A(8,10,11)            117.9303         estimate D2E/DX2                !
 ! A23   A(8,10,15)            119.5446         estimate D2E/DX2                !
 ! A24   A(11,10,15)           122.5247         estimate D2E/DX2                !
 ! A25   A(10,11,12)           113.0164         estimate D2E/DX2                !
 ! A26   A(5,13,14)            117.5778         estimate D2E/DX2                !
 ! A27   A(5,13,15)            120.621          estimate D2E/DX2                !
 ! A28   A(14,13,15)           117.4785         estimate D2E/DX2                !
 ! A29   A(10,15,13)           120.1026         estimate D2E/DX2                !
 ! A30   A(10,15,16)           118.5351         estimate D2E/DX2                !
 ! A31   A(13,15,16)           118.6723         estimate D2E/DX2                !
 ! D1    D(17,1,2,3)          -179.988          estimate D2E/DX2                !
 ! D2    D(17,1,2,4)           -61.3769         estimate D2E/DX2                !
 ! D3    D(17,1,2,5)            56.8358         estimate D2E/DX2                !
 ! D4    D(18,1,2,3)            59.9926         estimate D2E/DX2                !
 ! D5    D(18,1,2,4)           178.6037         estimate D2E/DX2                !
 ! D6    D(18,1,2,5)           -63.1836         estimate D2E/DX2                !
 ! D7    D(19,1,2,3)           -60.0425         estimate D2E/DX2                !
 ! D8    D(19,1,2,4)            58.5686         estimate D2E/DX2                !
 ! D9    D(19,1,2,5)           176.7813         estimate D2E/DX2                !
 ! D10   D(1,2,5,6)             75.2665         estimate D2E/DX2                !
 ! D11   D(1,2,5,13)           -96.7913         estimate D2E/DX2                !
 ! D12   D(3,2,5,6)            -48.5316         estimate D2E/DX2                !
 ! D13   D(3,2,5,13)           139.4107         estimate D2E/DX2                !
 ! D14   D(4,2,5,6)           -169.2356         estimate D2E/DX2                !
 ! D15   D(4,2,5,13)            18.7066         estimate D2E/DX2                !
 ! D16   D(2,5,6,7)             19.5787         estimate D2E/DX2                !
 ! D17   D(2,5,6,8)            175.6174         estimate D2E/DX2                !
 ! D18   D(13,5,6,7)          -168.079          estimate D2E/DX2                !
 ! D19   D(13,5,6,8)           -12.0403         estimate D2E/DX2                !
 ! D20   D(2,5,13,14)           25.2086         estimate D2E/DX2                !
 ! D21   D(2,5,13,15)         -178.7198         estimate D2E/DX2                !
 ! D22   D(6,5,13,14)         -147.0382         estimate D2E/DX2                !
 ! D23   D(6,5,13,15)            9.0335         estimate D2E/DX2                !
 ! D24   D(5,6,8,9)           -162.2848         estimate D2E/DX2                !
 ! D25   D(5,6,8,10)            10.7965         estimate D2E/DX2                !
 ! D26   D(7,6,8,9)             -6.2814         estimate D2E/DX2                !
 ! D27   D(7,6,8,10)           166.7999         estimate D2E/DX2                !
 ! D28   D(6,8,10,11)          173.9785         estimate D2E/DX2                !
 ! D29   D(6,8,10,15)           -6.2714         estimate D2E/DX2                !
 ! D30   D(9,8,10,11)          -12.9334         estimate D2E/DX2                !
 ! D31   D(9,8,10,15)          166.8167         estimate D2E/DX2                !
 ! D32   D(8,10,11,12)         170.588          estimate D2E/DX2                !
 ! D33   D(15,10,11,12)         -9.1541         estimate D2E/DX2                !
 ! D34   D(8,10,15,13)           3.4587         estimate D2E/DX2                !
 ! D35   D(8,10,15,16)        -157.7182         estimate D2E/DX2                !
 ! D36   D(11,10,15,13)       -176.8032         estimate D2E/DX2                !
 ! D37   D(11,10,15,16)         22.0199         estimate D2E/DX2                !
 ! D38   D(5,13,15,10)          -4.9429         estimate D2E/DX2                !
 ! D39   D(5,13,15,16)         156.2085         estimate D2E/DX2                !
 ! D40   D(14,13,15,10)        151.1517         estimate D2E/DX2                !
 ! D41   D(14,13,15,16)        -47.6969         estimate D2E/DX2                !
 --------------------------------------------------------------------------------
 Trust Radius=3.00D-01 FncErr=1.00D-07 GrdErr=1.00D-07
 Number of steps in this run=    101 maximum allowed number of steps=    114.
 GradGradGradGradGradGradGradGradGradGradGradGradGradGradGradGradGradGrad

                          Input orientation:                          
 ---------------------------------------------------------------------
 Center     Atomic      Atomic             Coordinates (Angstroms)
 Number     Number       Type             X           Y           Z
 ---------------------------------------------------------------------
      1          6           0      -28.578000   -6.884000  -22.134000
      2          6           0      -27.553000   -7.961000  -22.471000
      3          1           0      -27.269000   -8.514000  -21.576000
      4          1           0      -28.070000   -8.616000  -23.172000
      5          6           0      -26.324000   -7.414000  -23.132000
      6          6           0      -25.378000   -6.736000  -22.390000
      7          1           0      -25.385000   -6.895000  -21.322000
      8          6           0      -24.198000   -6.301000  -22.955000
      9          1           0      -23.361000   -6.036000  -22.327000
     10          6           0      -24.048000   -6.344000  -24.323000
     11          8           0      -22.922000   -5.792000  -24.860000
     12          1           0      -22.820000   -5.982000  -25.780000
     13          6           0      -26.178000   -7.426000  -24.508000
     14          1           0      -27.077000   -7.438000  -25.106000
     15          6           0      -25.026000   -6.941000  -25.098000
     16          1           0      -24.759000   -7.296000  -26.082000
     17          1           0      -28.849000   -6.343000  -23.041000
     18          1           0      -28.151000   -6.190000  -21.411000
     19          1           0      -29.468000   -7.350000  -21.710000
 ---------------------------------------------------------------------
                    Distance matrix (angstroms):
                    1          2          3          4          5
     1  C    0.000000
     2  C    1.524507   0.000000
     3  H    2.163734   1.089720   0.000000
     4  H    2.082146   1.089823   1.788637   0.000000
     5  C    2.521392   1.498857   2.127008   2.120123   0.000000
     6  C    3.213633   2.497561   2.720250   3.375320   1.380277
     7  H    3.294649   2.675216   2.497025   3.686945   2.104087
     8  C    4.494255   3.774372   4.028654   4.516492   2.406236
     9  H    5.288993   4.615108   4.687958   5.435541   3.365454
    10  C    5.060061   4.281310   4.757074   4.760595   2.782725
    11  O    6.372902   5.644293   6.090185   6.109519   4.146139
    12  H    6.874699   6.104688   6.624065   6.426673   4.619583
    13  C    3.419012   2.515198   3.312197   2.603970   1.383776
    14  H    3.375308   2.728247   3.695340   2.472668   2.112880
    15  C    4.626581   3.785136   4.462047   3.972535   2.402850
    16  H    5.508285   4.613890   5.299779   4.601437   3.341504
    17  H    1.090308   2.149986   3.058736   2.406352   2.744257
    18  H    1.089355   2.148871   2.491210   2.998859   2.792480
    19  H    1.090427   2.149341   2.491677   2.386337   3.451219
                    6          7          8          9         10
     6  C    0.000000
     7  H    1.079793   0.000000
     8  C    1.378713   2.104399   0.000000
     9  H    2.135944   2.417536   1.079434   0.000000
    10  C    2.378876   3.331242   1.376871   2.133272   0.000000
    11  O    3.608874   4.449767   2.348677   2.582314   1.364166
    12  H    4.313233   5.223654   3.159315   3.495541   1.939556
    13  C    2.366860   3.325869   2.756417   3.824180   2.396216
    14  H    3.279643   4.180475   3.769378   4.847381   3.314327
    15  C    2.738465   3.793306   2.384876   3.357036   1.383300
    16  H    3.785185   4.817705   3.329095   4.200242   2.122712
    17  H    3.553321   3.906272   4.651985   5.542760   4.969218
    18  H    2.991001   2.855819   4.245288   4.879229   5.033693
    19  H    4.191360   4.126555   5.515734   6.277160   6.100509
                   11         12         13         14         15
    11  O    0.000000
    12  H    0.944936   0.000000
    13  C    3.659972   3.870308   0.000000
    14  H    4.475920   4.549314   1.079791   0.000000
    15  C    2.409079   2.500248   1.382183   2.110373   0.000000
    16  H    2.670181   2.361678   2.123190   2.519100   1.079616
    17  H    6.224282   6.631839   3.234072   2.933127   4.382258
    18  H    6.276659   6.895722   3.874511   4.045245   4.891175
    19  H    7.429669   7.914053   4.319569   4.154208   5.601535
                   16         17         18         19
    16  H    0.000000
    17  H    5.184977   0.000000
    18  H    5.877682   1.779751   0.000000
    19  H    6.425884   1.780104   1.780306   0.000000
 Stoichiometry    C8H10O
 Framework group  C1[X(C8H10O)]
 Deg. of freedom    51
 Full point group                 C1      NOp   1
 Largest Abelian subgroup         C1      NOp   1
 Largest concise Abelian subgroup C1      NOp   1
                         Standard orientation:                         
 ---------------------------------------------------------------------
 Center     Atomic      Atomic             Coordinates (Angstroms)
 Number     Number       Type             X           Y           Z
 ---------------------------------------------------------------------
      1          6           0       -3.160466   -0.126569    0.742475
      2          6           0       -2.378344    0.115594   -0.543513
      3          1           0       -2.661361   -0.608643   -1.306975
      4          1           0       -2.667307    1.120669   -0.850172
      5          6           0       -0.893539    0.076144   -0.342592
      6          6           0       -0.246725   -1.130664   -0.168210
      7          1           0       -0.765427   -2.018242   -0.498522
      8          6           0        1.126662   -1.202469   -0.070730
      9          1           0        1.632812   -2.143991   -0.220820
     10          6           0        1.854871   -0.043228    0.076391
     11          8           0        3.196678   -0.155001    0.295502
     12          1           0        3.649465    0.672866    0.245263
     13          6           0       -0.157930    1.234526   -0.164079
     14          1           0       -0.671452    2.096186    0.235653
     15          6           0        1.214156    1.179936   -0.006508
     16          1           0        1.799155    2.052822   -0.254331
     17          1           0       -2.863701    0.607024    1.492504
     18          1           0       -2.949879   -1.129448    1.112042
     19          1           0       -4.227831   -0.028855    0.541936
 ---------------------------------------------------------------------
 Rotational constants (GHZ):      4.5900777      0.9617026      0.8497348
 Standard basis: 6-31G(d) (6D, 7F)
 There are   155 symmetry adapted cartesian basis functions of A   symmetry.
 There are   155 symmetry adapted basis functions of A   symmetry.
   155 basis functions,   292 primitive gaussians,   155 cartesian basis functions
    33 alpha electrons       33 beta electrons
       nuclear repulsion energy       422.2763144824 Hartrees.
 NAtoms=   19 NActive=   19 NUniq=   19 SFac= 1.00D+00 NAtFMM=   60 NAOKFM=F Big=F
 Integral buffers will be    131072 words long.
 Raffenetti 1 integral format.
 Two-electron integral symmetry is turned on.
 ------------------------------------------------------------------------------
 Polarizable Continuum Model (PCM)
 =================================
 Model                : PCM (using non-symmetric T matrix).
 Atomic radii         : SMD-Coulomb.
 Polarization charges : Total charges.
 Charge compensation  : None.
 Solution method      : On-the-fly selection.
 Cavity type          : VdW (van der Waals Surface) (Alpha=1.000).
 Cavity algorithm     : GePol (No added spheres)
                        Default sphere list used, NSphG=   19.
                        Lebedev-Laikov grids with approx.  5.0 points / Ang**2.
                        Smoothing algorithm: York/Karplus (Gamma=1.0000).
                        Polarization charges: spherical gaussians, with
                                              point-specific exponents (IZeta= 3).
                        Self-potential: point-specific (ISelfS= 7).
                        Self-field    : sphere-specific E.n sum rule (ISelfD= 2).
 1st derivatives      : Analytical E(r).r(x)/FMM algorithm (CHGder, D1EAlg=3).
                        Cavity 1st derivative terms included.
 Solvent              : Water, Eps=  78.355300 Eps(inf)=   1.777849
 ------------------------------------------------------------------------------
 Spheres list:
 ISph  on   Nord     Re0    Alpha      Xe            Ye            Ze
    1   C      1    1.8500  1.000     -3.160466     -0.126569      0.742475
    2   C      2    1.8500  1.000     -2.378344      0.115594     -0.543513
    3   H      3    1.2000  1.000     -2.661361     -0.608643     -1.306975
    4   H      4    1.2000  1.000     -2.667307      1.120669     -0.850172
    5   C      5    1.8500  1.000     -0.893539      0.076144     -0.342592
    6   C      6    1.8500  1.000     -0.246725     -1.130664     -0.168210
    7   H      7    1.2000  1.000     -0.765427     -2.018242     -0.498522
    8   C      8    1.8500  1.000      1.126662     -1.202469     -0.070730
    9   H      9    1.2000  1.000      1.632812     -2.143991     -0.220820
   10   C     10    1.8500  1.000      1.854871     -0.043228      0.076391
   11   O     11    1.5200  1.000      3.196678     -0.155001      0.295502
   12   H     12    1.2000  1.000      3.649465      0.672866      0.245263
   13   C     13    1.8500  1.000     -0.157930      1.234526     -0.164079
   14   H     14    1.2000  1.000     -0.671452      2.096186      0.235653
   15   C     15    1.8500  1.000      1.214156      1.179936     -0.006508
   16   H     16    1.2000  1.000      1.799155      2.052822     -0.254331
   17   H     17    1.2000  1.000     -2.863701      0.607024      1.492504
   18   H     18    1.2000  1.000     -2.949879     -1.129448      1.112042
   19   H     19    1.2000  1.000     -4.227831     -0.028855      0.541936
 ------------------------------------------------------------------------------
 ------------------------------------------------------------------------------
 Atomic radii for non-electrostatic terms: SMD-CDS.
 ------------------------------------------------------------------------------
 Nuclear repulsion after PCM non-electrostatic terms =      422.2828014026 Hartrees.
 One-electron integrals computed using PRISM.
 NBasis=   155 RedAO= T EigKep=  7.11D-04  NBF=   155
 NBsUse=   155 1.00D-06 EigRej= -1.00D+00 NBFU=   155
 ExpMin= 1.61D-01 ExpMax= 5.48D+03 ExpMxC= 8.25D+02 IAcc=1 IRadAn=         1 AccDes= 0.00D+00
 Harris functional with IExCor=  205 and IRadAn=       1 diagonalized for initial guess.
 HarFok:  IExCor=  205 AccDes= 0.00D+00 IRadAn=         1 IDoV= 1 UseB2=F ITyADJ=14
 ICtDFT=  3500011 ScaDFX=  1.000000  1.000000  1.000000  1.000000
 FoFCou: FMM=F IPFlag=           0 FMFlag=      100000 FMFlg1=           0
         NFxFlg=           0 DoJE=T BraDBF=F KetDBF=T FulRan=T
         wScrn=  0.000000 ICntrl=     500 IOpCl=  0 I1Cent=   200000004 NGrid=           0
         NMat0=    1 NMatS0=      1 NMatT0=    0 NMatD0=    1 NMtDS0=    0 NMtDT0=    0
 Petite list used in FoFCou.
 Keep R1 ints in memory in canonical form, NReq=78538797.
 Requested convergence on RMS density matrix=1.00D-08 within 128 cycles.
 Requested convergence on MAX density matrix=1.00D-06.
 Requested convergence on             energy=1.00D-06.
 No special actions if energy rises.
 Inv3:  Mode=1 IEnd=     6272748.
 Iteration    1 A*A^-1 deviation from unit magnitude is 4.66D-15 for   1443.
 Iteration    1 A*A^-1 deviation from orthogonality  is 3.86D-15 for   1100    893.
 Iteration    1 A^-1*A deviation from unit magnitude is 4.66D-15 for   1443.
 Iteration    1 A^-1*A deviation from orthogonality  is 1.67D-10 for    748    747.
 Iteration    2 A*A^-1 deviation from unit magnitude is 2.00D-15 for     58.
 Iteration    2 A*A^-1 deviation from orthogonality  is 5.60D-15 for   1412    464.
 Iteration    2 A^-1*A deviation from unit magnitude is 9.99D-16 for    537.
 Iteration    2 A^-1*A deviation from orthogonality  is 4.59D-16 for   1438    436.
 Error on total polarization charges =  0.03812
 SCF Done:  E(RHF) =  -383.604568252     A.U. after   14 cycles
            NFock= 14  Conv=0.40D-08     -V/T= 2.0006
 SMD-CDS (non-electrostatic) energy       (kcal/mol) =       4.07
 (included in total energy above)

 **********************************************************************

            Population analysis using the SCF density.

 **********************************************************************

 Orbital symmetries:
       Occupied  (A) (A) (A) (A) (A) (A) (A) (A) (A) (A) (A) (A)
                 (A) (A) (A) (A) (A) (A) (A) (A) (A) (A) (A) (A)
                 (A) (A) (A) (A) (A) (A) (A) (A) (A)
       Virtual   (A) (A) (A) (A) (A) (A) (A) (A) (A) (A) (A) (A)
                 (A) (A) (A) (A) (A) (A) (A) (A) (A) (A) (A) (A)
                 (A) (A) (A) (A) (A) (A) (A) (A) (A) (A) (A) (A)
                 (A) (A) (A) (A) (A) (A) (A) (A) (A) (A) (A) (A)
                 (A) (A) (A) (A) (A) (A) (A) (A) (A) (A) (A) (A)
                 (A) (A) (A) (A) (A) (A) (A) (A) (A) (A) (A) (A)
                 (A) (A) (A) (A) (A) (A) (A) (A) (A) (A) (A) (A)
                 (A) (A) (A) (A) (A) (A) (A) (A) (A) (A) (A) (A)
                 (A) (A) (A) (A) (A) (A) (A) (A) (A) (A) (A) (A)
                 (A) (A) (A) (A) (A) (A) (A) (A) (A) (A) (A) (A)
                 (A) (A)
 The electronic state is 1-A.
 Alpha  occ. eigenvalues --  -20.58582 -11.29301 -11.22440 -11.22394 -11.22275
 Alpha  occ. eigenvalues --  -11.22246 -11.22154 -11.21297 -11.20494  -1.40005
 Alpha  occ. eigenvalues --   -1.15680  -1.05716  -1.01711  -0.97491  -0.85797
 Alpha  occ. eigenvalues --   -0.83761  -0.78864  -0.73061  -0.66695  -0.64331
 Alpha  occ. eigenvalues --   -0.61036  -0.59847  -0.58529  -0.57545  -0.55771
 Alpha  occ. eigenvalues --   -0.55059  -0.51785  -0.49601  -0.47227  -0.47014
 Alpha  occ. eigenvalues --   -0.45226  -0.33128  -0.30172
 Alpha virt. eigenvalues --    0.12778   0.15902   0.24778   0.25754   0.27250
 Alpha virt. eigenvalues --    0.29076   0.31401   0.32857   0.33012   0.33997
 Alpha virt. eigenvalues --    0.35538   0.36034   0.37801   0.42112   0.44876
 Alpha virt. eigenvalues --    0.46598   0.50717   0.53590   0.54241   0.56571
 Alpha virt. eigenvalues --    0.68815   0.70956   0.71390   0.73541   0.74181
 Alpha virt. eigenvalues --    0.74797   0.76850   0.81425   0.82775   0.83747
 Alpha virt. eigenvalues --    0.85598   0.86976   0.89263   0.90412   0.91858
 Alpha virt. eigenvalues --    0.92894   0.95448   0.97212   1.00701   1.02509
 Alpha virt. eigenvalues --    1.06925   1.09453   1.10404   1.12375   1.14043
 Alpha virt. eigenvalues --    1.15416   1.17260   1.18149   1.19420   1.21969
 Alpha virt. eigenvalues --    1.22525   1.23927   1.25056   1.25876   1.26126
 Alpha virt. eigenvalues --    1.28273   1.29800   1.33772   1.34440   1.37188
 Alpha virt. eigenvalues --    1.41486   1.46745   1.50556   1.52909   1.55602
 Alpha virt. eigenvalues --    1.61362   1.66536   1.69080   1.79435   1.82189
 Alpha virt. eigenvalues --    1.85329   1.93974   1.98240   2.01185   2.02565
 Alpha virt. eigenvalues --    2.05135   2.06735   2.10766   2.13930   2.16468
 Alpha virt. eigenvalues --    2.19420   2.26308   2.27029   2.29249   2.30835
 Alpha virt. eigenvalues --    2.35810   2.39019   2.42961   2.46470   2.51033
 Alpha virt. eigenvalues --    2.55440   2.59156   2.60338   2.62419   2.64367
 Alpha virt. eigenvalues --    2.67681   2.69512   2.73417   2.75839   2.81059
 Alpha virt. eigenvalues --    2.87797   2.91121   2.93615   3.00109   3.01874
 Alpha virt. eigenvalues --    3.04986   3.13268   3.17530   3.21194   3.28416
 Alpha virt. eigenvalues --    3.29365   3.52812   3.80062   4.35342   4.55907
 Alpha virt. eigenvalues --    4.56060   4.61510   4.66847   4.77070   4.85899
 Alpha virt. eigenvalues --    4.93098   5.16284
          Condensed to atoms (all electrons):
               1          2          3          4          5          6
     1  C    5.143613   0.329216  -0.039243  -0.046661  -0.063317  -0.002860
     2  C    0.329216   5.084085   0.401524   0.411717   0.341537  -0.056131
     3  H   -0.039243   0.401524   0.520455  -0.023649  -0.040835  -0.004891
     4  H   -0.046661   0.411717  -0.023649   0.531839  -0.051575   0.003905
     5  C   -0.063317   0.341537  -0.040835  -0.051575   4.901430   0.549177
     6  C   -0.002860  -0.056131  -0.004891   0.003905   0.549177   4.953056
     7  H   -0.000010  -0.004241   0.002401  -0.000023  -0.042838   0.391202
     8  C   -0.000047   0.003359  -0.000108  -0.000033  -0.045873   0.528725
     9  H    0.000002  -0.000090  -0.000006   0.000002   0.002999  -0.028278
    10  C    0.000020   0.000079   0.000029  -0.000033  -0.027492  -0.046548
    11  O   -0.000000  -0.000000  -0.000000  -0.000000  -0.000013   0.002351
    12  H    0.000000  -0.000000   0.000000   0.000000  -0.000010  -0.000107
    13  C   -0.002320  -0.047965   0.002984  -0.002782   0.550514  -0.042178
    14  H    0.000737  -0.003808   0.000034   0.001368  -0.032698   0.003051
    15  C   -0.000119   0.004127  -0.000137   0.000357  -0.047415  -0.038149
    16  H    0.000001  -0.000104   0.000003  -0.000004   0.001876   0.000423
    17  H    0.392025  -0.040839   0.004072  -0.002954  -0.002210   0.000542
    18  H    0.389769  -0.040184  -0.002335   0.004790  -0.004349   0.003033
    19  H    0.387621  -0.038433  -0.001879  -0.003717   0.006203  -0.000048
               7          8          9         10         11         12
     1  C   -0.000010  -0.000047   0.000002   0.000020  -0.000000   0.000000
     2  C   -0.004241   0.003359  -0.000090   0.000079  -0.000000  -0.000000
     3  H    0.002401  -0.000108  -0.000006   0.000029  -0.000000   0.000000
     4  H   -0.000023  -0.000033   0.000002  -0.000033  -0.000000   0.000000
     5  C   -0.042838  -0.045873   0.002999  -0.027492  -0.000013  -0.000010
     6  C    0.391202   0.528725  -0.028278  -0.046548   0.002351  -0.000107
     7  H    0.472079  -0.036915  -0.003334   0.003524  -0.000043   0.000003
     8  C   -0.036915   5.018040   0.380359   0.566665  -0.050541   0.003368
     9  H   -0.003334   0.380359   0.441064  -0.033252   0.000174  -0.000132
    10  C    0.003524   0.566665  -0.033252   4.421286   0.247058  -0.022929
    11  O   -0.000043  -0.050541   0.000174   0.247058   8.407960   0.264478
    12  H    0.000003   0.003368  -0.000132  -0.022929   0.264478   0.247427
    13  C    0.005385  -0.040225  -0.000453  -0.034754   0.004250   0.000357
    14  H   -0.000150   0.000399   0.000011   0.001421  -0.000046  -0.000007
    15  C   -0.000627  -0.054574   0.004348   0.559579  -0.055389   0.000981
    16  H    0.000013   0.002599  -0.000109  -0.032561  -0.002365   0.002961
    17  H    0.000050  -0.000050  -0.000000   0.000003   0.000000   0.000000
    18  H    0.000297   0.000016   0.000002  -0.000008  -0.000000   0.000000
    19  H   -0.000025   0.000003  -0.000000  -0.000000   0.000000  -0.000000
              13         14         15         16         17         18
     1  C   -0.002320   0.000737  -0.000119   0.000001   0.392025   0.389769
     2  C   -0.047965  -0.003808   0.004127  -0.000104  -0.040839  -0.040184
     3  H    0.002984   0.000034  -0.000137   0.000003   0.004072  -0.002335
     4  H   -0.002782   0.001368   0.000357  -0.000004  -0.002954   0.004790
     5  C    0.550514  -0.032698  -0.047415   0.001876  -0.002210  -0.004349
     6  C   -0.042178   0.003051  -0.038149   0.000423   0.000542   0.003033
     7  H    0.005385  -0.000150  -0.000627   0.000013   0.000050   0.000297
     8  C   -0.040225   0.000399  -0.054574   0.002599  -0.000050   0.000016
     9  H   -0.000453   0.000011   0.004348  -0.000109  -0.000000   0.000002
    10  C   -0.034754   0.001421   0.559579  -0.032561   0.000003  -0.000008
    11  O    0.004250  -0.000046  -0.055389  -0.002365   0.000000  -0.000000
    12  H    0.000357  -0.000007   0.000981   0.002961   0.000000   0.000000
    13  C    5.022121   0.379599   0.469421  -0.027490   0.001505   0.000236
    14  H    0.379599   0.456792  -0.030038  -0.002524   0.000364  -0.000029
    15  C    0.469421  -0.030038   5.099723   0.380104  -0.000084   0.000007
    16  H   -0.027490  -0.002524   0.380104   0.445752   0.000001   0.000000
    17  H    0.001505   0.000364  -0.000084   0.000001   0.530617  -0.025768
    18  H    0.000236  -0.000029   0.000007   0.000000  -0.025768   0.534965
    19  H   -0.000036  -0.000031   0.000002  -0.000000  -0.024982  -0.024649
              19
     1  C    0.387621
     2  C   -0.038433
     3  H   -0.001879
     4  H   -0.003717
     5  C    0.006203
     6  C   -0.000048
     7  H   -0.000025
     8  C    0.000003
     9  H   -0.000000
    10  C   -0.000000
    11  O    0.000000
    12  H   -0.000000
    13  C   -0.000036
    14  H   -0.000031
    15  C    0.000002
    16  H   -0.000000
    17  H   -0.024982
    18  H   -0.024649
    19  H    0.532370
 Mulliken charges:
               1
     1  C   -0.488428
     2  C   -0.343850
     3  H    0.181581
     4  H    0.177451
     5  C    0.004888
     6  C   -0.216273
     7  H    0.213251
     8  C   -0.275168
     9  H    0.236693
    10  C    0.397915
    11  O   -0.817873
    12  H    0.503611
    13  C   -0.238170
    14  H    0.225552
    15  C   -0.292118
    16  H    0.231425
    17  H    0.167709
    18  H    0.164204
    19  H    0.167600
 Sum of Mulliken charges =  -0.00000
 Mulliken charges with hydrogens summed into heavy atoms:
               1
     1  C    0.011085
     2  C    0.015182
     5  C    0.004888
     6  C   -0.003023
     8  C   -0.038474
    10  C    0.397915
    11  O   -0.314262
    13  C   -0.012618
    15  C   -0.060693
 Electronic spatial extent (au):  <R**2>=           1387.5261
 Charge=              0.0000 electrons
 Dipole moment (field-independent basis, Debye):
    X=             -0.4170    Y=              1.8646    Z=             -0.6810  Tot=              2.0284
 Quadrupole moment (field-independent basis, Debye-Ang):
   XX=            -49.6189   YY=            -48.4158   ZZ=            -57.9604
   XY=              6.9944   XZ=             -0.6414   YZ=              1.9862
 Traceless Quadrupole moment (field-independent basis, Debye-Ang):
   XX=              2.3795   YY=              3.5826   ZZ=             -5.9620
   XY=              6.9944   XZ=             -0.6414   YZ=              1.9862
 Octapole moment (field-independent basis, Debye-Ang**2):
  XXX=             25.0966  YYY=             -0.0413  ZZZ=              1.4068  XYY=             10.3398
  XXY=             28.4445  XXZ=             -6.0637  XZZ=              2.9208  YZZ=             -0.1187
  YYZ=             -1.3601  XYZ=             -0.4295
 Hexadecapole moment (field-independent basis, Debye-Ang**3):
 XXXX=          -1297.4805 YYYY=           -289.4002 ZZZZ=           -127.1990 XXXY=             98.6031
 XXXZ=              9.1205 YYYX=              3.3387 YYYZ=              7.1169 ZZZX=              5.1051
 ZZZY=              3.2164 XXYY=           -256.6168 XXZZ=           -263.1153 YYZZ=            -76.5360
 XXYZ=              9.3588 YYXZ=             -1.1894 ZZXY=              1.9601
 N-N= 4.222828014026D+02 E-N=-1.741155352272D+03  KE= 3.833822438869D+02
 D1PCM: PCM CHGder 1st derivatives, ID1Alg=3 FixD1E=F DoIter=F DoCFld=F I1PDM=0.
 Calling FoFJK, ICntrl=      2127 FMM=F ISym2X=0 I1Cent= 0 IOpClX= 0 NMat=1 NMatS=1 NMatT=0.
 ***** Axes restored to original set *****
 -------------------------------------------------------------------
 Center     Atomic                   Forces (Hartrees/Bohr)
 Number     Number              X              Y              Z
 -------------------------------------------------------------------
      1        6           0.003595032    0.001687572    0.006258763
      2        6          -0.012749017   -0.002791378   -0.008591898
      3        1          -0.003593137   -0.000778055   -0.003613364
      4        1           0.007764111   -0.007240527    0.005294383
      5        6          -0.015554072    0.020441440   -0.003868611
      6        6           0.026856843   -0.042609935    0.017924368
      7        1          -0.005008808    0.013202195    0.000899323
      8        6           0.003121407    0.008895179    0.008839472
      9        1          -0.004489754    0.008928864   -0.003186315
     10        6           0.004272493   -0.002754806   -0.011855914
     11        8           0.005970805   -0.001850540    0.011372488
     12        1          -0.003822522   -0.003962239   -0.006882114
     13        6          -0.015918829    0.027735767    0.003547152
     14        1           0.004729635   -0.031245130   -0.005576041
     15        6           0.019387600   -0.015306111   -0.004385134
     16        1          -0.008465147    0.020712948   -0.008907357
     17        1          -0.001286924    0.000074249    0.005081533
     18        1          -0.006040740    0.001736295   -0.001671440
     19        1           0.001231023    0.005124213   -0.000679294
 -------------------------------------------------------------------
 Cartesian Forces:  Max     0.042609935 RMS     0.012039020

 GradGradGradGradGradGradGradGradGradGradGradGradGradGradGradGradGradGrad
 Berny optimization.
 FormGI is forming the generalized inverse of G from B-inverse, IUseBI=4.
 Internal  Forces:  Max     0.019252195 RMS     0.006029997
 Search for a local minimum.
 Step number   1 out of a maximum of  101
 All quantities printed in internal units (Hartrees-Bohrs-Radians)
 Mixed Optimization -- RFO/linear search
 Second derivative matrix not updated -- first step.
 ITU=  0
     Eigenvalues ---    0.00442   0.00781   0.01721   0.02166   0.02318
     Eigenvalues ---    0.02321   0.02343   0.02384   0.02429   0.02538
     Eigenvalues ---    0.02668   0.02728   0.04229   0.05702   0.05852
     Eigenvalues ---    0.05856   0.09291   0.12838   0.14704   0.14908
     Eigenvalues ---    0.15391   0.15900   0.16000   0.16000   0.16000
     Eigenvalues ---    0.16000   0.21924   0.22102   0.23029   0.23835
     Eigenvalues ---    0.24769   0.25000   0.29937   0.32498   0.34763
     Eigenvalues ---    0.34777   0.34833   0.34845   0.34887   0.36019
     Eigenvalues ---    0.36020   0.36041   0.36063   0.44068   0.44484
     Eigenvalues ---    0.48520   0.48814   0.49047   0.49415   0.52114
     Eigenvalues ---    0.58844
 RFO step:  Lambda=-3.36824666D-02 EMin= 4.41760706D-03
 Linear search not attempted -- first point.
 Iteration  1 RMS(Cart)=  0.06103320 RMS(Int)=  0.01262984
 Iteration  2 RMS(Cart)=  0.00917805 RMS(Int)=  0.00186911
 Iteration  3 RMS(Cart)=  0.00018002 RMS(Int)=  0.00185813
 Iteration  4 RMS(Cart)=  0.00000016 RMS(Int)=  0.00185813
 Variable       Old X    -DE/DX   Delta X   Delta X   Delta X     New X
                                 (Linear)    (Quad)   (Total)
    R1        2.88090   0.00976   0.00000   0.02930   0.02930   2.91020
    R2        2.06038  -0.00388   0.00000  -0.01016  -0.01016   2.05022
    R3        2.05858  -0.00237   0.00000  -0.00619  -0.00619   2.05240
    R4        2.06061  -0.00346   0.00000  -0.00907  -0.00907   2.05154
    R5        2.05927  -0.00350   0.00000  -0.00916  -0.00916   2.05011
    R6        2.05947  -0.00274   0.00000  -0.00718  -0.00718   2.05228
    R7        2.83243   0.01080   0.00000   0.03011   0.03011   2.86254
    R8        2.60835   0.01499   0.00000   0.02894   0.02916   2.63750
    R9        2.61496   0.01148   0.00000   0.02191   0.02254   2.63750
   R10        2.04051  -0.00103   0.00000  -0.00260  -0.00260   2.03791
   R11        2.60539   0.00768   0.00000   0.01515   0.01478   2.62017
   R12        2.03983  -0.00315   0.00000  -0.00798  -0.00798   2.03186
   R13        2.60191   0.01190   0.00000   0.02267   0.02205   2.62396
   R14        2.57790  -0.00235   0.00000  -0.00424  -0.00424   2.57366
   R15        2.61406   0.00319   0.00000   0.00581   0.00558   2.61963
   R16        1.78567   0.00710   0.00000   0.01141   0.01141   1.79708
   R17        2.04051  -0.00050   0.00000  -0.00127  -0.00127   2.03924
   R18        2.61195   0.01660   0.00000   0.03130   0.03168   2.64363
   R19        2.04018  -0.00078   0.00000  -0.00199  -0.00199   2.03819
    A1        1.91109   0.00291   0.00000   0.01434   0.01411   1.92520
    A2        1.91053   0.00735   0.00000   0.03896   0.03855   1.94907
    A3        1.91008   0.00376   0.00000   0.01908   0.01879   1.92888
    A4        1.91073  -0.00497   0.00000  -0.02496  -0.02530   1.88544
    A5        1.90990  -0.00379   0.00000  -0.02162  -0.02170   1.88821
    A6        1.91146  -0.00526   0.00000  -0.02580  -0.02626   1.88521
    A7        1.93069  -0.00253   0.00000  -0.02098  -0.02073   1.90996
    A8        1.82123   0.00840   0.00000   0.06637   0.06617   1.88740
    A9        1.97248  -0.00036   0.00000   0.00545   0.00496   1.97743
   A10        1.92509  -0.00444   0.00000  -0.04290  -0.04260   1.88248
   A11        1.91103   0.00120   0.00000  -0.00430  -0.00443   1.90660
   A12        1.90144  -0.00225   0.00000  -0.00267  -0.00385   1.89760
   A13        2.09921   0.00252   0.00000   0.01213   0.01041   2.10962
   A14        2.11984  -0.00229   0.00000  -0.00500  -0.00683   2.11301
   A15        2.05613   0.00018   0.00000   0.00080   0.00237   2.05849
   A16        2.04309   0.00523   0.00000   0.04880   0.04088   2.08397
   A17        2.11913  -0.00120   0.00000   0.00858   0.00227   2.12141
   A18        2.04579   0.00086   0.00000   0.02501   0.01646   2.06225
   A19        2.09750   0.00118   0.00000   0.00821   0.00773   2.10523
   A20        2.08352   0.00074   0.00000   0.00290   0.00304   2.08655
   A21        2.09582  -0.00163   0.00000  -0.00642  -0.00699   2.08883
   A22        2.05827  -0.00150   0.00000  -0.00403  -0.00429   2.05398
   A23        2.08645   0.00379   0.00000   0.01085   0.01134   2.09778
   A24        2.13846  -0.00229   0.00000  -0.00679  -0.00704   2.13141
   A25        1.97251  -0.00937   0.00000  -0.04835  -0.04835   1.92416
   A26        2.05212   0.00251   0.00000   0.03271   0.02631   2.07843
   A27        2.10523   0.00019   0.00000   0.00785   0.00524   2.11048
   A28        2.05039   0.00144   0.00000   0.02723   0.02079   2.07117
   A29        2.09619  -0.00237   0.00000  -0.00742  -0.00823   2.08796
   A30        2.06883   0.00004   0.00000   0.01019   0.00686   2.07569
   A31        2.07122   0.00446   0.00000   0.03392   0.03095   2.10217
    D1       -3.14138   0.00073   0.00000   0.00745   0.00767  -3.13371
    D2       -1.07123  -0.00098   0.00000  -0.01580  -0.01619  -1.08742
    D3        0.99197   0.00132   0.00000   0.02492   0.02529   1.01726
    D4        1.04707   0.00054   0.00000   0.00535   0.00553   1.05260
    D5        3.11722  -0.00117   0.00000  -0.01790  -0.01833   3.09889
    D6       -1.10276   0.00113   0.00000   0.02282   0.02315  -1.07961
    D7       -1.04794   0.00017   0.00000   0.00142   0.00148  -1.04646
    D8        1.02221  -0.00154   0.00000  -0.02183  -0.02238   0.99983
    D9        3.08541   0.00077   0.00000   0.01889   0.01910   3.10451
   D10        1.31365  -0.00187   0.00000   0.00148   0.00147   1.31511
   D11       -1.68933  -0.00538   0.00000  -0.06697  -0.06681  -1.75614
   D12       -0.84704   0.00077   0.00000   0.02805   0.02807  -0.81897
   D13        2.43318  -0.00274   0.00000  -0.04040  -0.04021   2.39297
   D14       -2.95372   0.00685   0.00000   0.08480   0.08454  -2.86918
   D15        0.32649   0.00334   0.00000   0.01635   0.01627   0.34276
   D16        0.34171  -0.00861   0.00000  -0.15348  -0.15526   0.18645
   D17        3.06510   0.00460   0.00000   0.07066   0.07087   3.13597
   D18       -2.93353  -0.00543   0.00000  -0.08798  -0.08981  -3.02334
   D19       -0.21014   0.00778   0.00000   0.13617   0.13632  -0.07383
   D20        0.43997  -0.01182   0.00000  -0.20004  -0.20082   0.23915
   D21       -3.11925  -0.00060   0.00000  -0.01513  -0.01554  -3.13479
   D22       -2.56630  -0.01544   0.00000  -0.26775  -0.26780  -2.83410
   D23        0.15766  -0.00421   0.00000  -0.08283  -0.08252   0.07515
   D24       -2.83240  -0.01010   0.00000  -0.16843  -0.16855  -3.00095
   D25        0.18843  -0.00753   0.00000  -0.12451  -0.12502   0.06342
   D26       -0.10963   0.00412   0.00000   0.06146   0.06050  -0.04913
   D27        2.91121   0.00670   0.00000   0.10538   0.10403   3.01524
   D28        3.03650   0.00278   0.00000   0.05025   0.05068   3.08718
   D29       -0.10946   0.00321   0.00000   0.05664   0.05666  -0.05279
   D30       -0.22573   0.00555   0.00000   0.09516   0.09483  -0.13090
   D31        2.91150   0.00598   0.00000   0.10155   0.10081   3.01232
   D32        2.97732   0.00044   0.00000   0.00718   0.00693   2.98426
   D33       -0.15977  -0.00002   0.00000   0.00054   0.00078  -0.15899
   D34        0.06037  -0.00016   0.00000  -0.00613  -0.00576   0.05461
   D35       -2.75270  -0.00820   0.00000  -0.13692  -0.13607  -2.88877
   D36       -3.08580   0.00029   0.00000   0.00057   0.00050  -3.08529
   D37        0.38432  -0.00774   0.00000  -0.13022  -0.12981   0.25451
   D38       -0.08627   0.00057   0.00000   0.01961   0.01943  -0.06684
   D39        2.72635   0.00779   0.00000   0.14615   0.14713   2.87349
   D40        2.63810   0.01203   0.00000   0.20561   0.20526   2.84335
   D41       -0.83247   0.01925   0.00000   0.33216   0.33296  -0.49951
         Item               Value     Threshold  Converged?
 Maximum Force            0.019252     0.000450     NO 
 RMS     Force            0.006030     0.000300     NO 
 Maximum Displacement     0.383443     0.001800     NO 
 RMS     Displacement     0.066243     0.001200     NO 
 Predicted change in Energy=-2.554324D-02
 GradGradGradGradGradGradGradGradGradGradGradGradGradGradGradGradGradGrad

                          Input orientation:                          
 ---------------------------------------------------------------------
 Center     Atomic      Atomic             Coordinates (Angstroms)
 Number     Number       Type             X           Y           Z
 ---------------------------------------------------------------------
      1          6           0      -28.590581   -6.862720  -22.095271
      2          6           0      -27.588507   -7.960986  -22.496886
      3          1           0      -27.319491   -8.541918  -21.621047
      4          1           0      -28.080330   -8.626761  -23.199948
      5          6           0      -26.329963   -7.417223  -23.141079
      6          6           0      -25.340332   -6.802281  -22.372657
      7          1           0      -25.389124   -6.865949  -21.297228
      8          6           0      -24.180078   -6.305591  -22.946751
      9          1           0      -23.372428   -5.952039  -22.331298
     10          6           0      -24.024797   -6.350635  -24.325843
     11          8           0      -22.899843   -5.793956  -24.854451
     12          1           0      -22.832547   -6.003368  -25.779635
     13          6           0      -26.162093   -7.440629  -24.526455
     14          1           0      -27.016069   -7.640909  -25.155029
     15          6           0      -24.995087   -6.945005  -25.117647
     16          1           0      -24.758484   -7.182340  -26.142826
     17          1           0      -28.875628   -6.277470  -22.963202
     18          1           0      -28.169749   -6.186213  -21.357156
     19          1           0      -29.488869   -7.303006  -21.673592
 ---------------------------------------------------------------------
                    Distance matrix (angstroms):
                    1          2          3          4          5
     1  C    0.000000
     2  C    1.540011   0.000000
     3  H    2.158764   1.084870   0.000000
     4  H    2.143014   1.086022   1.754709   0.000000
     5  C    2.551780   1.514793   2.134151   2.128435   0.000000
     6  C    3.262623   2.532256   2.740131   3.394220   1.395706
     7  H    3.299425   2.734149   2.576828   3.736762   2.142164
     8  C    4.526361   3.815770   4.076096   4.545758   2.428064
     9  H    5.302280   4.673180   4.774017   5.483889   3.398459
    10  C    5.107256   4.317215   4.792979   4.784950   2.802689
    11  O    6.414034   5.677825   6.126947   6.131853   4.163696
    12  H    6.889701   6.101464   6.623500   6.409072   4.603573
    13  C    3.484564   2.534675   3.315690   2.616518   1.395706
    14  H    3.528000   2.737857   3.659632   2.434522   2.139339
    15  C    4.697776   3.824452   4.492125   4.003074   2.431399
    16  H    5.582994   4.680619   5.371563   4.667070   3.396351
    17  H    1.084931   2.169875   3.057886   2.491529   2.794832
    18  H    1.086082   2.187841   2.518317   3.059437   2.842988
    19  H    1.085628   2.173046   2.498773   2.462940   3.485004
                    6          7          8          9         10
     6  C    0.000000
     7  H    1.078416   0.000000
     8  C    1.386534   2.120547   0.000000
     9  H    2.144125   2.443685   1.075212   0.000000
    10  C    2.397823   3.361465   1.388538   2.136042   0.000000
    11  O    3.623812   4.472083   2.353740   2.571892   1.361925
    12  H    4.305200   5.231836   3.151573   3.490721   1.911953
    13  C    2.391992   3.369814   2.777078   3.849266   2.407564
    14  H    3.354548   4.257951   3.834373   4.909365   3.361557
    15  C    2.770295   3.841499   2.405386   3.373832   1.386250
    16  H    3.833689   4.896696   3.364244   4.238224   2.128722
    17  H    3.622497   3.908642   4.695663   5.548911   5.039117
    18  H    3.068612   2.863129   4.296340   4.900825   5.101056
    19  H    4.236718   4.140118   5.549688   6.298297   6.147970
                   11         12         13         14         15
    11  O    0.000000
    12  H    0.950972   0.000000
    13  C    3.668977   3.836933   0.000000
    14  H    4.521604   4.535806   1.079117   0.000000
    15  C    2.405043   2.449794   1.398948   2.137767   0.000000
    16  H    2.653690   2.287164   2.156267   2.506535   1.078565
    17  H    6.286542   6.672799   3.340654   3.181357   4.488411
    18  H    6.336943   6.933793   3.955844   4.227406   4.979512
    19  H    7.470633   7.928132   4.384656   4.283611   5.673073
                   16         17         18         19
    16  H    0.000000
    17  H    5.280120   0.000000
    18  H    5.960842   1.756695   0.000000
    19  H    6.508852   1.758091   1.757110   0.000000
 Stoichiometry    C8H10O
 Framework group  C1[X(C8H10O)]
 Deg. of freedom    51
 Full point group                 C1      NOp   1
 Largest Abelian subgroup         C1      NOp   1
 Largest concise Abelian subgroup C1      NOp   1
                         Standard orientation:                         
 ---------------------------------------------------------------------
 Center     Atomic      Atomic             Coordinates (Angstroms)
 Number     Number       Type             X           Y           Z
 ---------------------------------------------------------------------
      1          6           0       -3.192194   -0.166349    0.753369
      2          6           0       -2.400613    0.163123   -0.525882
      3          1           0       -2.692710   -0.519428   -1.316923
      4          1           0       -2.666537    1.168602   -0.838517
      5          6           0       -0.899360    0.093988   -0.335997
      6          6           0       -0.243832   -1.135399   -0.253017
      7          1           0       -0.780095   -2.038835   -0.496342
      8          6           0        1.130291   -1.215008   -0.085908
      9          1           0        1.636175   -2.161434   -0.152531
     10          6           0        1.868851   -0.050623    0.077722
     11          8           0        3.206046   -0.175974    0.303634
     12          1           0        3.628186    0.675104    0.261087
     13          6           0       -0.142109    1.252442   -0.155585
     14          1           0       -0.646759    2.179114    0.070472
     15          6           0        1.245227    1.185658    0.011431
     16          1           0        1.851893    2.070921   -0.096119
     17          1           0       -2.916486    0.513805    1.552400
     18          1           0       -3.000804   -1.179834    1.093650
     19          1           0       -4.258794   -0.067217    0.576948
 ---------------------------------------------------------------------
 Rotational constants (GHZ):      4.4784770      0.9474443      0.8361544
 Standard basis: 6-31G(d) (6D, 7F)
 There are   155 symmetry adapted cartesian basis functions of A   symmetry.
 There are   155 symmetry adapted basis functions of A   symmetry.
   155 basis functions,   292 primitive gaussians,   155 cartesian basis functions
    33 alpha electrons       33 beta electrons
       nuclear repulsion energy       419.2492315272 Hartrees.
 NAtoms=   19 NActive=   19 NUniq=   19 SFac= 1.00D+00 NAtFMM=   60 NAOKFM=F Big=F
 Integral buffers will be    131072 words long.
 Raffenetti 1 integral format.
 Two-electron integral symmetry is turned on.
 ------------------------------------------------------------------------------
 Polarizable Continuum Model (PCM)
 =================================
 Model                : PCM (using non-symmetric T matrix).
 Atomic radii         : SMD-Coulomb.
 Polarization charges : Total charges.
 Charge compensation  : None.
 Solution method      : On-the-fly selection.
 Cavity type          : VdW (van der Waals Surface) (Alpha=1.000).
 Cavity algorithm     : GePol (No added spheres)
                        Default sphere list used, NSphG=   19.
                        Lebedev-Laikov grids with approx.  5.0 points / Ang**2.
                        Smoothing algorithm: York/Karplus (Gamma=1.0000).
                        Polarization charges: spherical gaussians, with
                                              point-specific exponents (IZeta= 3).
                        Self-potential: point-specific (ISelfS= 7).
                        Self-field    : sphere-specific E.n sum rule (ISelfD= 2).
 1st derivatives      : Analytical E(r).r(x)/FMM algorithm (CHGder, D1EAlg=3).
                        Cavity 1st derivative terms included.
 Solvent              : Water, Eps=  78.355300 Eps(inf)=   1.777849
 ------------------------------------------------------------------------------
 Spheres list:
 ISph  on   Nord     Re0    Alpha      Xe            Ye            Ze
    1   C      1    1.8500  1.000     -3.192194     -0.166349      0.753369
    2   C      2    1.8500  1.000     -2.400613      0.163123     -0.525882
    3   H      3    1.2000  1.000     -2.692710     -0.519428     -1.316923
    4   H      4    1.2000  1.000     -2.666537      1.168602     -0.838517
    5   C      5    1.8500  1.000     -0.899360      0.093988     -0.335997
    6   C      6    1.8500  1.000     -0.243832     -1.135399     -0.253017
    7   H      7    1.2000  1.000     -0.780095     -2.038835     -0.496342
    8   C      8    1.8500  1.000      1.130291     -1.215008     -0.085908
    9   H      9    1.2000  1.000      1.636175     -2.161434     -0.152531
   10   C     10    1.8500  1.000      1.868851     -0.050623      0.077722
   11   O     11    1.5200  1.000      3.206046     -0.175974      0.303634
   12   H     12    1.2000  1.000      3.628186      0.675104      0.261087
   13   C     13    1.8500  1.000     -0.142109      1.252442     -0.155585
   14   H     14    1.2000  1.000     -0.646759      2.179114      0.070472
   15   C     15    1.8500  1.000      1.245227      1.185658      0.011431
   16   H     16    1.2000  1.000      1.851893      2.070921     -0.096119
   17   H     17    1.2000  1.000     -2.916486      0.513805      1.552400
   18   H     18    1.2000  1.000     -3.000804     -1.179834      1.093650
   19   H     19    1.2000  1.000     -4.258794     -0.067217      0.576948
 ------------------------------------------------------------------------------
 ------------------------------------------------------------------------------
 Atomic radii for non-electrostatic terms: SMD-CDS.
 ------------------------------------------------------------------------------
 Nuclear repulsion after PCM non-electrostatic terms =      419.2558151856 Hartrees.
 One-electron integrals computed using PRISM.
 NBasis=   155 RedAO= T EigKep=  5.36D-04  NBF=   155
 NBsUse=   155 1.00D-06 EigRej= -1.00D+00 NBFU=   155
 Initial guess from the checkpoint file:  "tyr.chk"
 B after Tr=     0.000000    0.000000    0.000000
         Rot=    0.999936   -0.011196    0.000554    0.001452 Ang=  -1.30 deg.
 ExpMin= 1.61D-01 ExpMax= 5.48D+03 ExpMxC= 8.25D+02 IAcc=1 IRadAn=         1 AccDes= 0.00D+00
 Harris functional with IExCor=  205 and IRadAn=       1 diagonalized for initial guess.
 HarFok:  IExCor=  205 AccDes= 0.00D+00 IRadAn=         1 IDoV= 1 UseB2=F ITyADJ=14
 ICtDFT=  3500011 ScaDFX=  1.000000  1.000000  1.000000  1.000000
 FoFCou: FMM=F IPFlag=           0 FMFlag=      100000 FMFlg1=           0
         NFxFlg=           0 DoJE=T BraDBF=F KetDBF=T FulRan=T
         wScrn=  0.000000 ICntrl=     500 IOpCl=  0 I1Cent=   200000004 NGrid=           0
         NMat0=    1 NMatS0=      1 NMatT0=    0 NMatD0=    1 NMtDS0=    0 NMtDT0=    0
 Petite list used in FoFCou.
 Keep R1 ints in memory in canonical form, NReq=78544009.
 Requested convergence on RMS density matrix=1.00D-08 within 128 cycles.
 Requested convergence on MAX density matrix=1.00D-06.
 Requested convergence on             energy=1.00D-06.
 No special actions if energy rises.
 Inv3:  Mode=1 IEnd=     6290112.
 Iteration    1 A*A^-1 deviation from unit magnitude is 3.55D-15 for   1446.
 Iteration    1 A*A^-1 deviation from orthogonality  is 2.99D-15 for   1277     84.
 Iteration    1 A^-1*A deviation from unit magnitude is 3.44D-15 for   1446.
 Iteration    1 A^-1*A deviation from orthogonality  is 8.71D-11 for   1229   1219.
 Error on total polarization charges =  0.03804
 SCF Done:  E(RHF) =  -383.628453962     A.U. after   13 cycles
            NFock= 13  Conv=0.65D-08     -V/T= 2.0013
 SMD-CDS (non-electrostatic) energy       (kcal/mol) =       4.13
 (included in total energy above)
 D1PCM: PCM CHGder 1st derivatives, ID1Alg=3 FixD1E=F DoIter=F DoCFld=F I1PDM=0.
 Calling FoFJK, ICntrl=      2127 FMM=F ISym2X=0 I1Cent= 0 IOpClX= 0 NMat=1 NMatS=1 NMatT=0.
 ***** Axes restored to original set *****
 -------------------------------------------------------------------
 Center     Atomic                   Forces (Hartrees/Bohr)
 Number     Number              X              Y              Z
 -------------------------------------------------------------------
      1        6           0.003550563   -0.003095017   -0.000711656
      2        6          -0.003804413    0.005912644   -0.001941557
      3        1          -0.000818595   -0.001167777    0.000218598
      4        1           0.001087154   -0.001540875    0.002061796
      5        6          -0.005642626    0.011450397   -0.005986059
      6        6           0.013462023   -0.019925766    0.000260303
      7        1          -0.003601890    0.005702363   -0.001113594
      8        6          -0.005261473   -0.000228791    0.001161003
      9        1          -0.001702555    0.004765597   -0.000843518
     10        6          -0.002079072   -0.002600507   -0.000267663
     11        8           0.003436142   -0.003847354    0.000412673
     12        1           0.000113582    0.000645378   -0.000774305
     13        6           0.000156862    0.020527830    0.005249551
     14        1           0.006511903   -0.016910349   -0.000255778
     15        6           0.002424552   -0.012332769    0.005984210
     16        1          -0.007225769    0.012382433   -0.003234415
     17        1          -0.000747078    0.000682246   -0.000144561
     18        1           0.000480001   -0.000453544   -0.000307185
     19        1          -0.000339311    0.000033860    0.000232157
 -------------------------------------------------------------------
 Cartesian Forces:  Max     0.020527830 RMS     0.006202619

 GradGradGradGradGradGradGradGradGradGradGradGradGradGradGradGradGradGrad
 Berny optimization.
 Using GEDIIS/GDIIS optimizer.
 FormGI is forming the generalized inverse of G from B-inverse, IUseBI=4.
 Internal  Forces:  Max     0.011128285 RMS     0.002600171
 Search for a local minimum.
 Step number   2 out of a maximum of  101
 All quantities printed in internal units (Hartrees-Bohrs-Radians)
 Mixed Optimization -- RFO/linear search
 Update second derivatives using D2CorX and points    1    2
 DE= -2.39D-02 DEPred=-2.55D-02 R= 9.35D-01
 TightC=F SS=  1.41D+00  RLast= 7.13D-01 DXNew= 5.0454D-01 2.1398D+00
 Trust test= 9.35D-01 RLast= 7.13D-01 DXMaxT set to 5.05D-01
 ITU=  1  0
 Use linear search instead of GDIIS.
     Eigenvalues ---    0.00442   0.00781   0.01715   0.02109   0.02181
     Eigenvalues ---    0.02317   0.02342   0.02373   0.02389   0.02407
     Eigenvalues ---    0.02440   0.02804   0.04207   0.05528   0.05544
     Eigenvalues ---    0.05682   0.09511   0.12912   0.15550   0.15754
     Eigenvalues ---    0.15779   0.15929   0.15976   0.16000   0.16000
     Eigenvalues ---    0.16406   0.21934   0.22006   0.22997   0.24006
     Eigenvalues ---    0.24946   0.25004   0.30384   0.32500   0.34765
     Eigenvalues ---    0.34792   0.34814   0.34880   0.34885   0.36001
     Eigenvalues ---    0.36021   0.36036   0.36085   0.44149   0.44775
     Eigenvalues ---    0.48513   0.48848   0.49290   0.51643   0.52578
     Eigenvalues ---    0.58791
 RFO step:  Lambda=-8.90264470D-03 EMin= 4.41773863D-03
 Quartic linear search produced a step of  0.78914.
 Iteration  1 RMS(Cart)=  0.05600698 RMS(Int)=  0.02691894
 Iteration  2 RMS(Cart)=  0.01989411 RMS(Int)=  0.00335030
 Iteration  3 RMS(Cart)=  0.00081094 RMS(Int)=  0.00321471
 Iteration  4 RMS(Cart)=  0.00000089 RMS(Int)=  0.00321471
 Variable       Old X    -DE/DX   Delta X   Delta X   Delta X     New X
                                 (Linear)    (Quad)   (Total)
    R1        2.91020  -0.00418   0.02312  -0.04545  -0.02233   2.88787
    R2        2.05022   0.00068  -0.00802   0.01088   0.00286   2.05309
    R3        2.05240  -0.00030  -0.00488   0.00321  -0.00167   2.05073
    R4        2.05154   0.00036  -0.00716   0.00853   0.00138   2.05291
    R5        2.05011   0.00061  -0.00723   0.00979   0.00256   2.05267
    R6        2.05228  -0.00089  -0.00567   0.00113  -0.00454   2.04775
    R7        2.86254   0.00011   0.02376  -0.02219   0.00157   2.86412
    R8        2.63750  -0.00183   0.02301  -0.02788  -0.00457   2.63293
    R9        2.63750  -0.00617   0.01779  -0.03928  -0.02032   2.61719
   R10        2.03791  -0.00129  -0.00205  -0.00402  -0.00608   2.03183
   R11        2.62017  -0.00395   0.01166  -0.02333  -0.01251   2.60766
   R12        2.03186  -0.00020  -0.00630   0.00507  -0.00123   2.03063
   R13        2.62396  -0.00041   0.01740  -0.01657  -0.00034   2.62361
   R14        2.57366   0.00176  -0.00334   0.00881   0.00547   2.57913
   R15        2.61963  -0.00254   0.00440  -0.01285  -0.00877   2.61086
   R16        1.79708   0.00063   0.00900  -0.00656   0.00244   1.79952
   R17        2.03924  -0.00186  -0.00101  -0.00770  -0.00870   2.03053
   R18        2.64363  -0.00610   0.02500  -0.04556  -0.01970   2.62392
   R19        2.03819  -0.00123  -0.00157  -0.00423  -0.00580   2.03240
    A1        1.92520   0.00123   0.01114   0.00310   0.01406   1.93927
    A2        1.94907  -0.00121   0.03042  -0.04487  -0.01475   1.93432
    A3        1.92888   0.00027   0.01483  -0.01191   0.00266   1.93154
    A4        1.88544  -0.00004  -0.01996   0.01964  -0.00052   1.88492
    A5        1.88821  -0.00053  -0.01712   0.01593  -0.00132   1.88689
    A6        1.88521   0.00028  -0.02072   0.02089  -0.00020   1.88501
    A7        1.90996  -0.00023  -0.01636   0.01040  -0.00574   1.90422
    A8        1.88740   0.00137   0.05222  -0.03498   0.01706   1.90446
    A9        1.97743  -0.00093   0.00391  -0.00801  -0.00455   1.97288
   A10        1.88248  -0.00128  -0.03362   0.01268  -0.02064   1.86184
   A11        1.90660   0.00054  -0.00349   0.00726   0.00365   1.91025
   A12        1.89760   0.00050  -0.00304   0.01335   0.00931   1.90691
   A13        2.10962   0.00009   0.00822  -0.00337   0.00147   2.11110
   A14        2.11301   0.00035  -0.00539   0.01158   0.00280   2.11581
   A15        2.05849  -0.00035   0.00187  -0.00755  -0.00222   2.05627
   A16        2.08397   0.00013   0.03226  -0.01511   0.00436   2.08833
   A17        2.12141  -0.00033   0.00179   0.00394  -0.00329   2.11812
   A18        2.06225   0.00114   0.01299   0.01424   0.01446   2.07671
   A19        2.10523   0.00075   0.00610   0.00129   0.00593   2.11116
   A20        2.08655  -0.00020   0.00240   0.00046   0.00285   2.08941
   A21        2.08883  -0.00045  -0.00551   0.00076  -0.00622   2.08261
   A22        2.05398   0.00008  -0.00338   0.00340  -0.00075   2.05323
   A23        2.09778  -0.00074   0.00895  -0.01277  -0.00233   2.09546
   A24        2.13141   0.00066  -0.00556   0.00937   0.00304   2.13445
   A25        1.92416   0.00084  -0.03816   0.04723   0.00908   1.93323
   A26        2.07843  -0.00028   0.02076   0.00016   0.00783   2.08625
   A27        2.11048   0.00231   0.00414   0.01427   0.01284   2.12331
   A28        2.07117  -0.00084   0.01640  -0.00100   0.00228   2.07345
   A29        2.08796  -0.00047  -0.00650   0.00374  -0.00443   2.08353
   A30        2.07569   0.00126   0.00542   0.01883   0.01725   2.09294
   A31        2.10217  -0.00008   0.02442  -0.01391   0.00353   2.10571
    D1       -3.13371   0.00023   0.00606   0.00286   0.00908  -3.12463
    D2       -1.08742  -0.00065  -0.01278   0.00395  -0.00920  -1.09662
    D3        1.01726   0.00034   0.01996  -0.00858   0.01165   1.02892
    D4        1.05260   0.00025   0.00437   0.00555   0.01010   1.06271
    D5        3.09889  -0.00062  -0.01446   0.00664  -0.00817   3.09072
    D6       -1.07961   0.00036   0.01827  -0.00589   0.01268  -1.06693
    D7       -1.04646   0.00052   0.00117   0.01706   0.01830  -1.02816
    D8        0.99983  -0.00035  -0.01766   0.01815   0.00002   0.99985
    D9        3.10451   0.00064   0.01507   0.00562   0.02088   3.12539
   D10        1.31511   0.00020   0.00116   0.02910   0.03034   1.34546
   D11       -1.75614  -0.00131  -0.05272   0.01800  -0.03469  -1.79083
   D12       -0.81897   0.00074   0.02215   0.01591   0.03818  -0.78079
   D13        2.39297  -0.00077  -0.03173   0.00482  -0.02686   2.36611
   D14       -2.86918   0.00168   0.06672  -0.01100   0.05561  -2.81356
   D15        0.34276   0.00017   0.01284  -0.02209  -0.00943   0.33333
   D16        0.18645  -0.00441  -0.12252  -0.03849  -0.16192   0.02453
   D17        3.13597   0.00149   0.05592  -0.01823   0.03724  -3.10998
   D18       -3.02334  -0.00292  -0.07087  -0.02698  -0.09885  -3.12219
   D19       -0.07383   0.00298   0.10757  -0.00672   0.10031   0.02648
   D20        0.23915  -0.00647  -0.15848  -0.08644  -0.24572  -0.00657
   D21       -3.13479  -0.00070  -0.01226  -0.02014  -0.03304   3.11536
   D22       -2.83410  -0.00795  -0.21133  -0.09736  -0.30892   3.14016
   D23        0.07515  -0.00218  -0.06512  -0.03106  -0.09624  -0.02109
   D24       -3.00095  -0.00426  -0.13301  -0.01836  -0.15146   3.13077
   D25        0.06342  -0.00262  -0.09865   0.01931  -0.07952  -0.01610
   D26       -0.04913   0.00145   0.04774  -0.00145   0.04535  -0.00379
   D27        3.01524   0.00310   0.08210   0.03623   0.11729   3.13253
   D28        3.08718   0.00129   0.04000   0.00347   0.04395   3.13114
   D29       -0.05279   0.00149   0.04472   0.00737   0.05233  -0.00046
   D30       -0.13090   0.00298   0.07484   0.04081   0.11525  -0.01565
   D31        3.01232   0.00318   0.07956   0.04471   0.12362   3.13594
   D32        2.98426   0.00065   0.00547   0.02807   0.03340   3.01766
   D33       -0.15899   0.00045   0.00062   0.02407   0.02482  -0.13416
   D34        0.05461  -0.00085  -0.00454  -0.04476  -0.04884   0.00577
   D35       -2.88877  -0.00480  -0.10738  -0.09197  -0.19910  -3.08787
   D36       -3.08529  -0.00064   0.00040  -0.04068  -0.04006  -3.12535
   D37        0.25451  -0.00459  -0.10244  -0.08788  -0.19032   0.06419
   D38       -0.06684   0.00115   0.01534   0.05655   0.07219   0.00536
   D39        2.87349   0.00531   0.11611   0.10830   0.22515   3.09863
   D40        2.84335   0.00697   0.16198   0.12272   0.28407   3.12743
   D41       -0.49951   0.01113   0.26275   0.17447   0.43703  -0.06248
         Item               Value     Threshold  Converged?
 Maximum Force            0.011128     0.000450     NO 
 RMS     Force            0.002600     0.000300     NO 
 Maximum Displacement     0.430062     0.001800     NO 
 RMS     Displacement     0.070846     0.001200     NO 
 Predicted change in Energy=-1.006450D-02
 GradGradGradGradGradGradGradGradGradGradGradGradGradGradGradGradGradGrad

                          Input orientation:                          
 ---------------------------------------------------------------------
 Center     Atomic      Atomic             Coordinates (Angstroms)
 Number     Number       Type             X           Y           Z
 ---------------------------------------------------------------------
      1          6           0      -28.575484   -6.845717  -22.095528
      2          6           0      -27.602870   -7.948227  -22.512507
      3          1           0      -27.346792   -8.544521  -21.641448
      4          1           0      -28.098233   -8.613366  -23.209960
      5          6           0      -26.335374   -7.412063  -23.147408
      6          6           0      -25.321078   -6.860446  -22.367555
      7          1           0      -25.427148   -6.834009  -21.297926
      8          6           0      -24.179858   -6.336414  -22.939537
      9          1           0      -23.405953   -5.903598  -22.332556
     10          6           0      -24.022340   -6.372414  -24.318459
     11          8           0      -22.883195   -5.831038  -24.839987
     12          1           0      -22.824272   -6.004138  -25.774531
     13          6           0      -26.148862   -7.447855  -24.519280
     14          1           0      -26.912893   -7.868488  -25.146893
     15          6           0      -25.004800   -6.931404  -25.112903
     16          1           0      -24.858729   -7.002961  -26.176030
     17          1           0      -28.867233   -6.238342  -22.947786
     18          1           0      -28.123709   -6.191755  -21.356685
     19          1           0      -29.475178   -7.272243  -21.661021
 ---------------------------------------------------------------------
                    Distance matrix (angstroms):
                    1          2          3          4          5
     1  C    0.000000
     2  C    1.528194   0.000000
     3  H    2.145182   1.086226   0.000000
     4  H    2.143434   1.083621   1.740585   0.000000
     5  C    2.538758   1.515624   2.138538   2.134177   0.000000
     6  C    3.265789   2.531967   2.732555   3.390423   1.393288
     7  H    3.247819   2.729553   2.594011   3.735865   2.140002
     8  C    4.504805   3.807534   4.073113   4.539967   2.417950
     9  H    5.260022   4.671939   4.793988   5.489096   3.394255
    10  C    5.088866   4.308694   4.789199   4.781583   2.793270
    11  O    6.400296   5.672300   6.125140   6.131472   4.157163
    12  H    6.878936   6.103711   6.632429   6.418703   4.605634
    13  C    3.482189   2.528171   3.304487   2.621599   1.384955
    14  H    3.622306   2.724411   3.596308   2.389891   2.130678
    15  C    4.675648   3.813917   4.487547   4.002439   2.421700
    16  H    5.521729   4.673889   5.397157   4.678179   3.394171
    17  H    1.086447   2.170665   3.055604   2.510146   2.797816
    18  H    1.085199   2.166193   2.494032   3.049504   2.809623
    19  H    1.086356   2.165067   2.479737   2.468562   3.476674
                    6          7          8          9         10
     6  C    0.000000
     7  H    1.075201   0.000000
     8  C    1.379912   2.120901   0.000000
     9  H    2.141142   2.453845   1.074563   0.000000
    10  C    2.393935   3.363061   1.388357   2.131557   0.000000
    11  O    3.621584   4.474801   2.355515   2.562373   1.364819
    12  H    4.309848   5.244392   3.159938   3.492228   1.921234
    13  C    2.379117   3.357798   2.758237   3.832760   2.391443
    14  H    3.357789   4.253485   3.832643   4.907129   3.358547
    15  C    2.764418   3.839521   2.399597   3.367942   1.381607
    16  H    3.839083   4.914015   3.373431   4.253405   2.132535
    17  H    3.646765   3.861482   4.688408   5.506010   5.036835
    18  H    3.053481   2.772613   4.252094   4.826239   5.062210
    19  H    4.233829   4.087840   5.527277   6.257766   6.132300
                   11         12         13         14         15
    11  O    0.000000
    12  H    0.952265   0.000000
    13  C    3.658077   3.835736   0.000000
    14  H    4.525909   4.537240   1.074510   0.000000
    15  C    2.405513   2.460137   1.388520   2.126053   0.000000
    16  H    2.657282   2.301709   2.146437   2.455168   1.075498
    17  H    6.289279   6.675531   3.364826   3.363464   4.481792
    18  H    6.302895   6.901927   3.934439   4.317775   4.938001
    19  H    7.459030   7.922348   4.389175   4.367163   5.658263
                   16         17         18         19
    16  H    0.000000
    17  H    5.203297   0.000000
    18  H    5.877434   1.756872   0.000000
    19  H    6.462926   1.759066   1.756856   0.000000
 Stoichiometry    C8H10O
 Framework group  C1[X(C8H10O)]
 Deg. of freedom    51
 Full point group                 C1      NOp   1
 Largest Abelian subgroup         C1      NOp   1
 Largest concise Abelian subgroup C1      NOp   1
                         Standard orientation:                         
 ---------------------------------------------------------------------
 Center     Atomic      Atomic             Coordinates (Angstroms)
 Number     Number       Type             X           Y           Z
 ---------------------------------------------------------------------
      1          6           0       -3.178416   -0.173766    0.759837
      2          6           0       -2.400558    0.175521   -0.508356
      3          1           0       -2.701382   -0.497061   -1.306494
      4          1           0       -2.670618    1.175662   -0.826194
      5          6           0       -0.898300    0.098509   -0.322860
      6          6           0       -0.241023   -1.129787   -0.299940
      7          1           0       -0.802562   -2.036247   -0.438000
      8          6           0        1.121090   -1.211648   -0.094753
      9          1           0        1.619983   -2.163015   -0.068464
     10          6           0        1.862570   -0.050136    0.074457
     11          8           0        3.204386   -0.180829    0.287005
     12          1           0        3.631712    0.670146    0.280534
     13          6           0       -0.134787    1.243097   -0.164534
     14          1           0       -0.613184    2.205124   -0.179081
     15          6           0        1.237692    1.181506    0.036707
     16          1           0        1.820755    2.081536    0.118434
     17          1           0       -2.914343    0.492042    1.576740
     18          1           0       -2.967064   -1.190650    1.074376
     19          1           0       -4.247992   -0.090680    0.588750
 ---------------------------------------------------------------------
 Rotational constants (GHZ):      4.4941662      0.9518077      0.8400823
 Standard basis: 6-31G(d) (6D, 7F)
 There are   155 symmetry adapted cartesian basis functions of A   symmetry.
 There are   155 symmetry adapted basis functions of A   symmetry.
   155 basis functions,   292 primitive gaussians,   155 cartesian basis functions
    33 alpha electrons       33 beta electrons
       nuclear repulsion energy       420.2370716556 Hartrees.
 NAtoms=   19 NActive=   19 NUniq=   19 SFac= 1.00D+00 NAtFMM=   60 NAOKFM=F Big=F
 Integral buffers will be    131072 words long.
 Raffenetti 1 integral format.
 Two-electron integral symmetry is turned on.
 ------------------------------------------------------------------------------
 Polarizable Continuum Model (PCM)
 =================================
 Model                : PCM (using non-symmetric T matrix).
 Atomic radii         : SMD-Coulomb.
 Polarization charges : Total charges.
 Charge compensation  : None.
 Solution method      : On-the-fly selection.
 Cavity type          : VdW (van der Waals Surface) (Alpha=1.000).
 Cavity algorithm     : GePol (No added spheres)
                        Default sphere list used, NSphG=   19.
                        Lebedev-Laikov grids with approx.  5.0 points / Ang**2.
                        Smoothing algorithm: York/Karplus (Gamma=1.0000).
                        Polarization charges: spherical gaussians, with
                                              point-specific exponents (IZeta= 3).
                        Self-potential: point-specific (ISelfS= 7).
                        Self-field    : sphere-specific E.n sum rule (ISelfD= 2).
 1st derivatives      : Analytical E(r).r(x)/FMM algorithm (CHGder, D1EAlg=3).
                        Cavity 1st derivative terms included.
 Solvent              : Water, Eps=  78.355300 Eps(inf)=   1.777849
 ------------------------------------------------------------------------------
 Spheres list:
 ISph  on   Nord     Re0    Alpha      Xe            Ye            Ze
    1   C      1    1.8500  1.000     -3.178416     -0.173766      0.759837
[...]
 ! D35   D(8,10,15,16)        -179.6521         -DE/DX =    0.0                 !
 ! D36   D(11,10,15,13)        179.9633         -DE/DX =    0.0                 !
 ! D37   D(11,10,15,16)          0.1852         -DE/DX =    0.0                 !
 ! D38   D(5,13,15,10)          -0.0136         -DE/DX =    0.0                 !
 ! D39   D(5,13,15,16)         179.7632         -DE/DX =    0.0                 !
 ! D40   D(14,13,15,10)       -179.7845         -DE/DX =    0.0                 !
 ! D41   D(14,13,15,16)         -0.0078         -DE/DX =    0.0                 !
 --------------------------------------------------------------------------------
 GradGradGradGradGradGradGradGradGradGradGradGradGradGradGradGradGradGrad

                          Input orientation:                          
 ---------------------------------------------------------------------
 Center     Atomic      Atomic             Coordinates (Angstroms)
 Number     Number       Type             X           Y           Z
 ---------------------------------------------------------------------
      1          6           0      -28.614933   -6.850185  -22.191711
      2          6           0      -27.575626   -7.945238  -22.450396
      3          1           0      -27.320931   -8.422579  -21.509083
      4          1           0      -28.015477   -8.711197  -23.081416
      5          6           0      -26.314945   -7.419708  -23.104388
      6          6           0      -25.263749   -6.917079  -22.341205
      7          1           0      -25.335909   -6.927622  -21.267269
      8          6           0      -24.119734   -6.405450  -22.928748
      9          1           0      -23.314081   -6.023232  -22.328226
     10          6           0      -24.007909   -6.388765  -24.311044
     11          8           0      -22.864989   -5.877425  -24.851340
     12          1           0      -22.903716   -5.918431  -25.800951
     13          6           0      -26.175975   -7.393107  -24.486621
     14          1           0      -26.966051   -7.778243  -25.107865
     15          6           0      -25.036774   -6.884498  -25.093865
     16          1           0      -24.946835   -6.876322  -26.166221
     17          1           0      -28.917481   -6.373731  -23.119529
     18          1           0      -28.216459   -6.081599  -21.536095
     19          1           0      -29.502426   -7.264591  -21.722026
 ---------------------------------------------------------------------
                    Distance matrix (angstroms):
                    1          2          3          4          5
     1  C    0.000000
     2  C    1.531737   0.000000
     3  H    2.147754   1.085723   0.000000
     4  H    2.148089   1.085517   1.742965   0.000000
     5  C    2.539149   1.514333   2.136061   2.135481   0.000000
     6  C    3.355183   2.532550   2.681596   3.367310   1.392874
     7  H    3.407725   2.729774   2.496735   3.694909   2.139081
     8  C    4.576879   3.813523   4.041277   4.529524   2.424566
     9  H    5.366705   4.676516   4.741594   5.467685   3.399670
    10  C    5.092067   4.314305   4.792025   4.792314   2.800228
    11  O    6.409505   5.677190   6.124044   6.139253   4.163253
    12  H    6.820027   6.095975   6.648509   6.428492   4.600192
    13  C    3.392623   2.531814   3.352084   2.663781   1.389456
    14  H    3.476213   2.731594   3.673192   2.465398   2.136915
    15  C    4.607265   3.815608   4.520368   4.032301   2.424497
    16  H    5.408544   4.675519   5.451255   4.722219   3.397324
    17  H    1.085997   2.172084   3.056189   2.505756   2.804905
    18  H    1.085973   2.172502   2.506569   3.056664   2.804609
    19  H    1.086269   2.169415   2.478952   2.480247   3.477789
                    6          7          8          9         10
     6  C    0.000000
     7  H    1.076409   0.000000
     8  C    1.384103   2.124207   0.000000
     9  H    2.144840   2.455878   1.075079   0.000000
    10  C    2.395103   3.364300   1.386913   2.132271   0.000000
    11  O    3.624323   4.478161   2.355750   2.566914   1.363692
    12  H    4.305450   5.242928   3.156808   3.498457   1.913185
    13  C    2.379405   3.359555   2.762347   3.837403   2.395838
    14  H    3.360632   4.258063   3.838572   4.913588   3.363953
    15  C    2.762194   3.838512   2.399621   3.370194   1.384602
    16  H    3.838339   4.914646   3.374470   4.257212   2.135644
    17  H    3.775020   4.070052   4.801644   5.669842   5.052112
    18  H    3.172495   3.014232   4.339069   4.966306   5.050405
    19  H    4.297735   4.204785   5.582801   6.340667   6.136758
                   11         12         13         14         15
    11  O    0.000000
    12  H    0.951284   0.000000
    13  C    3.659637   3.822278   0.000000
    14  H    4.527431   4.521265   1.076334   0.000000
    15  C    2.406172   2.446056   1.387518   2.126285   0.000000
    16  H    2.657215   2.285894   2.144506   2.451696   1.076153
    17  H    6.314916   6.600204   3.228611   3.119970   4.383922
    18  H    6.298474   6.814753   3.819585   4.147247   4.838674
    19  H    7.468093   7.873547   4.327213   4.261565   5.608548
                   16         17         18         19
    16  H    0.000000
    17  H    5.030006   0.000000
    18  H    5.723643   1.756142   0.000000
    19  H    6.376129   1.757499   1.757199   0.000000
 Stoichiometry    C8H10O
 Framework group  C1[X(C8H10O)]
 Deg. of freedom    51
 Full point group                 C1      NOp   1
 Largest Abelian subgroup         C1      NOp   1
 Largest concise Abelian subgroup C1      NOp   1
                         Standard orientation:                         
 ---------------------------------------------------------------------
 Center     Atomic      Atomic             Coordinates (Angstroms)
 Number     Number       Type             X           Y           Z
 ---------------------------------------------------------------------
      1          6           0       -3.176418   -0.015081    0.787256
      2          6           0       -2.404042    0.037118   -0.534459
      3          1           0       -2.699000   -0.806015   -1.151647
      4          1           0       -2.685146    0.935230   -1.075497
      5          6           0       -0.902184    0.017313   -0.341499
      6          6           0       -0.204847   -1.184339   -0.242238
      7          1           0       -0.737494   -2.115398   -0.332077
      8          6           0        1.163258   -1.214883   -0.034639
      9          1           0        1.690241   -2.149193    0.037111
     10          6           0        1.866063   -0.024584    0.078421
     11          8           0        3.212587   -0.096944    0.281626
     12          1           0        3.582865    0.777156    0.343150
     13          6           0       -0.173511    1.194811   -0.226946
     14          1           0       -0.678553    2.142165   -0.304081
     15          6           0        1.198290    1.184431   -0.018962
     16          1           0        1.745218    2.107584    0.063278
     17          1           0       -2.929251    0.834961    1.416323
     18          1           0       -2.941500   -0.919504    1.340582
     19          1           0       -4.247732   -0.000159    0.608248
 ---------------------------------------------------------------------
 Rotational constants (GHZ):      4.4885907      0.9487829      0.8404308

 **********************************************************************

            Population analysis using the SCF density.

 **********************************************************************

 Orbital symmetries:
       Occupied  (A) (A) (A) (A) (A) (A) (A) (A) (A) (A) (A) (A)
                 (A) (A) (A) (A) (A) (A) (A) (A) (A) (A) (A) (A)
                 (A) (A) (A) (A) (A) (A) (A) (A) (A)
       Virtual   (A) (A) (A) (A) (A) (A) (A) (A) (A) (A) (A) (A)
                 (A) (A) (A) (A) (A) (A) (A) (A) (A) (A) (A) (A)
                 (A) (A) (A) (A) (A) (A) (A) (A) (A) (A) (A) (A)
                 (A) (A) (A) (A) (A) (A) (A) (A) (A) (A) (A) (A)
                 (A) (A) (A) (A) (A) (A) (A) (A) (A) (A) (A) (A)
                 (A) (A) (A) (A) (A) (A) (A) (A) (A) (A) (A) (A)
                 (A) (A) (A) (A) (A) (A) (A) (A) (A) (A) (A) (A)
                 (A) (A) (A) (A) (A) (A) (A) (A) (A) (A) (A) (A)
                 (A) (A) (A) (A) (A) (A) (A) (A) (A) (A) (A) (A)
                 (A) (A) (A) (A) (A) (A) (A) (A) (A) (A) (A) (A)
                 (A) (A)
 The electronic state is 1-A.
 Alpha  occ. eigenvalues --  -20.58803 -11.29449 -11.22909 -11.22882 -11.22556
 Alpha  occ. eigenvalues --  -11.22337 -11.22214 -11.21583 -11.20465  -1.40139
 Alpha  occ. eigenvalues --   -1.15105  -1.05226  -1.01509  -0.97311  -0.85797
 Alpha  occ. eigenvalues --   -0.83867  -0.78938  -0.72907  -0.66834  -0.64095
 Alpha  occ. eigenvalues --   -0.60711  -0.59201  -0.58737  -0.58122  -0.56353
 Alpha  occ. eigenvalues --   -0.55069  -0.51689  -0.49102  -0.47174  -0.47089
 Alpha  occ. eigenvalues --   -0.46539  -0.33833  -0.30277
 Alpha virt. eigenvalues --    0.14156   0.16264   0.24779   0.25488   0.27628
 Alpha virt. eigenvalues --    0.29378   0.31084   0.32750   0.33296   0.34738
 Alpha virt. eigenvalues --    0.35586   0.37013   0.37146   0.41591   0.44716
 Alpha virt. eigenvalues --    0.46472   0.50635   0.53071   0.54266   0.56234
 Alpha virt. eigenvalues --    0.70710   0.70797   0.72562   0.73668   0.73887
 Alpha virt. eigenvalues --    0.75270   0.76606   0.81212   0.83155   0.83184
 Alpha virt. eigenvalues --    0.84098   0.84718   0.88044   0.90412   0.90670
 Alpha virt. eigenvalues --    0.93075   0.93994   0.99584   1.00428   1.05175
 Alpha virt. eigenvalues --    1.08454   1.10146   1.11767   1.12399   1.13766
 Alpha virt. eigenvalues --    1.16962   1.17191   1.18340   1.19367   1.20538
 Alpha virt. eigenvalues --    1.23194   1.23631   1.24393   1.26133   1.26892
 Alpha virt. eigenvalues --    1.29361   1.32096   1.34217   1.41979   1.45008
 Alpha virt. eigenvalues --    1.46170   1.50762   1.52607   1.58357   1.62580
 Alpha virt. eigenvalues --    1.68384   1.72409   1.73106   1.74647   1.75005
 Alpha virt. eigenvalues --    1.79892   1.82324   1.97594   2.00822   2.02501
 Alpha virt. eigenvalues --    2.03709   2.09705   2.10881   2.13904   2.17222
 Alpha virt. eigenvalues --    2.23910   2.26392   2.28165   2.28557   2.32839
 Alpha virt. eigenvalues --    2.35164   2.37345   2.41601   2.45711   2.46441
 Alpha virt. eigenvalues --    2.49642   2.59798   2.59858   2.60826   2.65089
 Alpha virt. eigenvalues --    2.67805   2.68714   2.74328   2.75997   2.79217
 Alpha virt. eigenvalues --    2.84665   2.93937   2.95849   2.98203   3.03046
 Alpha virt. eigenvalues --    3.03476   3.12214   3.16239   3.24502   3.27918
 Alpha virt. eigenvalues --    3.31961   3.51730   3.83820   4.36505   4.54417
 Alpha virt. eigenvalues --    4.54945   4.60652   4.66801   4.76511   4.86369
 Alpha virt. eigenvalues --    4.92843   5.19493
          Condensed to atoms (all electrons):
               1          2          3          4          5          6
     1  C    5.136923   0.330260  -0.040303  -0.039459  -0.060545  -0.002774
     2  C    0.330260   5.060538   0.406985   0.407562   0.327898  -0.045768
     3  H   -0.040303   0.406985   0.525678  -0.028086  -0.045537  -0.003015
     4  H   -0.039459   0.407562  -0.028086   0.523912  -0.046258   0.002938
     5  C   -0.060545   0.327898  -0.045537  -0.046258   4.883298   0.563873
     6  C   -0.002774  -0.045768  -0.003015   0.002938   0.563873   4.940981
     7  H    0.000283  -0.002179   0.001676  -0.000001  -0.030471   0.382109
     8  C   -0.000065   0.002674   0.000167  -0.000051  -0.054732   0.540289
     9  H    0.000002  -0.000090  -0.000003   0.000002   0.002114  -0.025153
    10  C    0.000018   0.000285  -0.000008  -0.000012  -0.023302  -0.046693
    11  O   -0.000000   0.000000  -0.000000  -0.000000   0.000106   0.002070
    12  H    0.000000  -0.000000   0.000000   0.000000  -0.000003  -0.000137
    13  C   -0.002717  -0.044620   0.002723  -0.002774   0.571620  -0.046857
    14  H    0.000260  -0.002234   0.000000   0.001841  -0.029165   0.002979
    15  C   -0.000079   0.002925  -0.000060   0.000202  -0.054731  -0.032620
    16  H    0.000002  -0.000093   0.000002  -0.000004   0.001778   0.000142
    17  H    0.390998  -0.037789   0.004021  -0.002468  -0.002367   0.000398
    18  H    0.391428  -0.037659  -0.002449   0.003959  -0.002675   0.001773
    19  H    0.387836  -0.036382  -0.002170  -0.002265   0.005829  -0.000024
               7          8          9         10         11         12
     1  C    0.000283  -0.000065   0.000002   0.000018  -0.000000   0.000000
     2  C   -0.002179   0.002674  -0.000090   0.000285   0.000000  -0.000000
     3  H    0.001676   0.000167  -0.000003  -0.000008  -0.000000   0.000000
     4  H   -0.000001  -0.000051   0.000002  -0.000012  -0.000000   0.000000
     5  C   -0.030471  -0.054732   0.002114  -0.023302   0.000106  -0.000003
     6  C    0.382109   0.540289  -0.025153  -0.046693   0.002070  -0.000137
     7  H    0.441646  -0.028747  -0.001836   0.002066  -0.000045   0.000003
     8  C   -0.028747   5.000974   0.377833   0.576309  -0.049261   0.003458
     9  H   -0.001836   0.377833   0.438825  -0.031899   0.000370  -0.000136
    10  C    0.002066   0.576309  -0.031899   4.414074   0.249541  -0.025300
    11  O   -0.000045  -0.049261   0.000370   0.249541   8.402703   0.264785
    12  H    0.000003   0.003458  -0.000136  -0.025300   0.264785   0.247936
    13  C    0.003120  -0.033080  -0.000140  -0.041273   0.004005   0.000385
    14  H   -0.000111   0.000220   0.000010   0.001253  -0.000042  -0.000006
    15  C    0.000099  -0.060085   0.003727   0.566228  -0.053845   0.000954
    16  H    0.000009   0.002673  -0.000093  -0.029920  -0.002478   0.003232
    17  H    0.000002  -0.000007   0.000000  -0.000009   0.000000   0.000000
    18  H    0.000238  -0.000028   0.000002  -0.000008   0.000000   0.000000
    19  H   -0.000013   0.000000  -0.000000  -0.000000   0.000000  -0.000000
              13         14         15         16         17         18
     1  C   -0.002717   0.000260  -0.000079   0.000002   0.390998   0.391428
     2  C   -0.044620  -0.002234   0.002925  -0.000093  -0.037789  -0.037659
     3  H    0.002723   0.000000  -0.000060   0.000002   0.004021  -0.002449
     4  H   -0.002774   0.001841   0.000202  -0.000004  -0.002468   0.003959
     5  C    0.571620  -0.029165  -0.054731   0.001778  -0.002367  -0.002675
     6  C   -0.046857   0.002979  -0.032620   0.000142   0.000398   0.001773
     7  H    0.003120  -0.000111   0.000099   0.000009   0.000002   0.000238
     8  C   -0.033080   0.000220  -0.060085   0.002673  -0.000007  -0.000028
     9  H   -0.000140   0.000010   0.003727  -0.000093   0.000000   0.000002
    10  C   -0.041273   0.001253   0.566228  -0.029920  -0.000009  -0.000008
    11  O    0.004005  -0.000042  -0.053845  -0.002478   0.000000   0.000000
    12  H    0.000385  -0.000006   0.000954   0.003232   0.000000   0.000000
    13  C    4.967074   0.380167   0.501703  -0.023826   0.001647   0.000369
    14  H    0.380167   0.439853  -0.026576  -0.001413   0.000175   0.000001
    15  C    0.501703  -0.026576   5.074744   0.378388  -0.000031  -0.000005
    16  H   -0.023826  -0.001413   0.378388   0.429971   0.000002  -0.000000
    17  H    0.001647   0.000175  -0.000031   0.000002   0.532454  -0.027702
    18  H    0.000369   0.000001  -0.000005  -0.000000  -0.027702   0.531820
    19  H   -0.000018  -0.000011   0.000000  -0.000000  -0.026323  -0.026432
              19
     1  C    0.387836
     2  C   -0.036382
     3  H   -0.002170
     4  H   -0.002265
     5  C    0.005829
     6  C   -0.000024
     7  H   -0.000013
     8  C    0.000000
     9  H   -0.000000
    10  C   -0.000000
    11  O    0.000000
    12  H   -0.000000
    13  C   -0.000018
    14  H   -0.000011
    15  C    0.000000
    16  H   -0.000000
    17  H   -0.026323
    18  H   -0.026432
    19  H    0.531690
 Mulliken charges:
               1
     1  C   -0.492066
     2  C   -0.332314
     3  H    0.180382
     4  H    0.180962
     5  C   -0.006729
     6  C   -0.234508
     7  H    0.232153
     8  C   -0.278541
     9  H    0.236465
    10  C    0.388649
    11  O   -0.817910
    12  H    0.504828
    13  C   -0.237509
    14  H    0.232798
    15  C   -0.300939
    16  H    0.241629
    17  H    0.167001
    18  H    0.167368
    19  H    0.168282
 Sum of Mulliken charges =  -0.00000
 Mulliken charges with hydrogens summed into heavy atoms:
               1
     1  C    0.010585
     2  C    0.029030
     5  C   -0.006729
     6  C   -0.002355
     8  C   -0.042075
    10  C    0.388649
    11  O   -0.313083
    13  C   -0.004711
    15  C   -0.059310
 Electronic spatial extent (au):  <R**2>=           1404.3705
 Charge=             -0.0000 electrons
 Dipole moment (field-independent basis, Debye):
    X=             -0.7461    Y=              2.0290    Z=             -0.1168  Tot=              2.1650
 Quadrupole moment (field-independent basis, Debye-Ang):
   XX=            -50.8311   YY=            -46.8369   ZZ=            -58.0962
   XY=              7.5027   XZ=              1.5369   YZ=              0.7900
 Traceless Quadrupole moment (field-independent basis, Debye-Ang):
   XX=              1.0903   YY=              5.0845   ZZ=             -6.1748
   XY=              7.5027   XZ=              1.5369   YZ=              0.7900
 Octapole moment (field-independent basis, Debye-Ang**2):
  XXX=             16.1441  YYY=              2.1579  ZZZ=              2.4259  XYY=             11.4993
  XXY=             27.7984  XXZ=             -0.2986  XZZ=              2.5054  YZZ=              0.5828
  YYZ=              0.0557  XYZ=              2.6228
 Hexadecapole moment (field-independent basis, Debye-Ang**3):
 XXXX=          -1346.2427 YYYY=           -280.3870 ZZZZ=           -132.2830 XXXY=            103.1186
 XXXZ=             22.6265 YYYX=              7.6823 YYYZ=              0.8313 ZZZX=              6.4229
 ZZZY=              0.7227 XXYY=           -253.1680 XXZZ=           -263.0209 YYZZ=            -78.3878
 XXYZ=              9.9430 YYXZ=              6.7690 ZZXY=              2.2754
 N-N= 4.199387583772D+02 E-N=-1.736369787891D+03  KE= 3.832157093802D+02
 1\1\NSC-N86\FOpt\RHF\6-31G(d)\C8H10O1\X_GABOA\12-Dec-2022\0\\#HF/6-31G
 * scrf=smd opt\\remark line goes here\\0,1\C,-28.6149328407,-6.8501845
 475,-22.1917111605\C,-27.5756262225,-7.9452381213,-22.4503963467\H,-27
 .3209310532,-8.4225791656,-21.5090829668\H,-28.0154771034,-8.711196538
 9,-23.0814161496\C,-26.314945068,-7.4197075132,-23.1043883542\C,-25.26
 37491005,-6.9170788935,-22.3412045939\H,-25.3359086152,-6.9276216971,-
 21.2672690782\C,-24.119733833,-6.4054504049,-22.9287479957\H,-23.31408
 08083,-6.0232319305,-22.3282260525\C,-24.0079091313,-6.3887649536,-24.
 3110443876\O,-22.8649885095,-5.877425283,-24.8513404811\H,-22.90371625
 49,-5.9184309107,-25.8009508528\C,-26.1759745459,-7.3931070048,-24.486
 6208374\H,-26.9660512518,-7.7782434446,-25.1078646464\C,-25.0367741958
 ,-6.8844976984,-25.0938645003\H,-24.946835156,-6.8763215757,-26.166221
 1125\H,-28.9174814776,-6.3737307274,-23.1195288172\H,-28.2164592139,-6
 .0815989003,-21.536095338\H,-29.5024256186,-7.2645906889,-21.722026328
 7\\Version=ES64L-G09RevE.01\State=1-A\HF=-383.6386835\RMSD=6.557e-09\R
 MSF=9.014e-06\Dipole=-0.5562029,-0.27673,-0.5827273\Quadrupole=-3.4625
 978,-4.2208699,7.6834677,0.9260822,-2.2763331,-0.5626841\PG=C01 [X(C8H
 10O1)]\\@


 HE WHO LAUGHS LAST PROBABLY DIDN'T GET THE JOKE.
 Job cpu time:       0 days  0 hours 15 minutes 42.3 seconds.
 File lengths (MBytes):  RWF=     87 Int=      0 D2E=      0 Chk=     12 Scr=      1
 Normal termination of Gaussian 09 at Mon Dec 12 16:34:48 2022.
