 Entering Gaussian System, Link 0=/software/sse/easybuild/prefix/software/Gaussian/09.E.01-avx-nsc1-bdist/g09/g09.orig
 Input=tyr_gesp.wrap
 Output=tyr_gesp.log
 Initial command:
 /software/sse/easybuild/prefix/software/Gaussian/09.E.01-avx-nsc1-bdist/g09/l1.exe "/scratch/local/Gau-169685.inp" -scrdir="/scratch/local/"
 Entering Link 1 = /software/sse/easybuild/prefix/software/Gaussian/09.E.01-avx-nsc1-bdist/g09/l1.exe PID=    169686.
  
 Copyright (c) 1988,1990,1992,1993,1995,1998,2003,2009,2015,
            Gaussian, Inc.  All Rights Reserved.
  
 This is part of the Gaussian(R) 09 program.  It is based on
 the Gaussian(R) 03 system (copyright 2003, Gaussian, Inc.),
 the Gaussian(R) 98 system (copyright 1998, Gaussian, Inc.),
 the Gaussian(R) 94 system (copyright 1995, Gaussian, Inc.),
 the Gaussian 92(TM) system (copyright 1992, Gaussian, Inc.),
 the Gaussian 90(TM) system (copyright 1990, Gaussian, Inc.),
 the Gaussian 88(TM) system (copyright 1988, Gaussian, Inc.),
 the Gaussian 86(TM) system (copyright 1986, Carnegie Mellon
 University), and the Gaussian 82(TM) system (copyright 1983,
 Carnegie Mellon University). Gaussian is a federally registered
 trademark of Gaussian, Inc.
  
 This software contains proprietary and confidential information,
 including trade secrets, belonging to Gaussian, Inc.
  
 This software is provided under written license and may be
 used, copied, transmitted, or stored only in accord with that
 written license.
  
 The following legend is applicable only to US Government
 contracts under FAR:
  
                    RESTRICTED RIGHTS LEGEND
  
 Use, reproduction and disclosure by the US Government is
 subject to restrictions as set forth in subparagraphs (a)
 and (c) of the Commercial Computer Software - Restricted
 Rights clause in FAR 52.227-19.
  
 Gaussian, Inc.
 340 Quinnipiac St., Bldg. 40, Wallingford CT 06492
  
  
 ---------------------------------------------------------------
 Warning -- This program may not be used in any manner that
 competes with the business of Gaussian, Inc. or will provide
 assistance to any competitor of Gaussian, Inc.  The licensee
 of this program is prohibited from giving any competitor of
 Gaussian, Inc. access to this program.  By using this program,
 the user acknowledges that Gaussian, Inc. is engaged in the
 business of creating and licensing software in the field of
 computational chemistry and represents and warrants to the
 licensee that it is not a competitor of Gaussian, Inc. and that
 it will not use this program in any manner prohibited above.
 ---------------------------------------------------------------
  

 Cite this work as:
 Gaussian 09, Revision E.01,
 M. J. Frisch, G. W. Trucks, H. B. Schlegel, G. E. Scuseria, 
 M. A. Robb, J. R. Cheeseman, G. Scalmani, V. Barone, B. Mennucci, 
 G. A. Petersson, H. Nakatsuji, M. Caricato, X. Li, H. P. Hratchian, 
 A. F. Izmaylov, J. Bloino, G. Zheng, J. L. Sonnenberg, M. Hada, 
 M. Ehara, K. Toyota, R. Fukuda, J. Hasegawa, M. Ishida, T. Nakajima, 
 Y. Honda, O. Kitao, H. Nakai, T. Vreven, J. A. Montgomery, Jr., 
 J. E. Peralta, F. Ogliaro, M. Bearpark, J. J. Heyd, E. Brothers, 
 K. N. Kudin, V. N. Staroverov, T. Keith, R. Kobayashi, J. Normand, 
 K. Raghavachari, A. Rendell, J. C. Burant, S. S. Iyengar, J. Tomasi, 
 M. Cossi, N. Rega, J. M. Millam, M. Klene, J. E. Knox, J. B. Cross, 
 V. Bakken, C. Adamo, J. Jaramillo, R. Gomperts, R. E. Stratmann, 
 O. Yazyev, A. J. Austin, R. Cammi, C. Pomelli, J. W. Ochterski, 
 R. L. Martin, K. Morokuma, V. G. Zakrzewski, G. A. Voth, 
 P. Salvador, J. J. Dannenberg, S. Dapprich, A. D. Daniels, 
 O. Farkas, J. B. Foresman, J. V. Ortiz, J. Cioslowski, 
 and D. J. Fox, Gaussian, Inc., Wallingford CT, 2013.
 
 ******************************************
 Gaussian 09:  ES64L-G09RevE.01 30-Nov-2015
                12-Dec-2022 
 ******************************************
 %chk=tyr_gesp
 ----------------------------------------------------------------------
 #HF/6-31G* scrf=smd SCF=tight Test Pop=MK iop(6/33=2) iop(6/42=6) # io
 p(6/50=1)
 ----------------------------------------------------------------------
 1/38=1/1;
 2/12=2,17=6,18=5,40=1/2;
 3/5=1,6=6,7=1,11=9,16=1,25=1,30=1,70=32201,72=1/1,2,3;
 4//1;
 5/5=2,32=2,38=5/2;
 6/7=2,8=2,9=2,10=2,15=8,20=1,28=1,33=2,42=6,50=1/1,2;
 99/5=1,9=1/99;
 -----------------
 calc RESP charges
 -----------------
 Symbolic Z-matrix:
 Charge =  0 Multiplicity = 1
 C                    -3.17642  -0.01508   0.78726 
 C                    -2.40404   0.03712  -0.53446 
 H                    -2.699    -0.80602  -1.15165 
 H                    -2.68515   0.93523  -1.0755 
 C                    -0.90218   0.01731  -0.3415 
 C                    -0.20485  -1.18434  -0.24224 
 H                    -0.73749  -2.1154   -0.33208 
 C                     1.16326  -1.21488  -0.03464 
 H                     1.69024  -2.14919   0.03711 
 C                     1.86606  -0.02458   0.07842 
 O                     3.21259  -0.09694   0.28163 
 H                     3.58286   0.77716   0.34315 
 C                    -0.17351   1.19481  -0.22695 
 H                    -0.67855   2.14216  -0.30408 
 C                     1.19829   1.18443  -0.01896 
 H                     1.74522   2.10758   0.06328 
 H                    -2.92925   0.83496   1.41632 
 H                    -2.9415   -0.9195    1.34058 
 H                    -4.24773  -0.00016   0.60825 
 
                          Input orientation:                          
 ---------------------------------------------------------------------
 Center     Atomic      Atomic             Coordinates (Angstroms)
 Number     Number       Type             X           Y           Z
 ---------------------------------------------------------------------
      1          6           0       -3.176418   -0.015081    0.787256
      2          6           0       -2.404042    0.037118   -0.534459
      3          1           0       -2.699000   -0.806015   -1.151647
      4          1           0       -2.685146    0.935230   -1.075497
      5          6           0       -0.902184    0.017313   -0.341499
      6          6           0       -0.204847   -1.184339   -0.242238
      7          1           0       -0.737494   -2.115398   -0.332077
      8          6           0        1.163258   -1.214883   -0.034639
      9          1           0        1.690241   -2.149193    0.037111
     10          6           0        1.866063   -0.024584    0.078421
     11          8           0        3.212587   -0.096944    0.281626
     12          1           0        3.582865    0.777156    0.343150
     13          6           0       -0.173511    1.194811   -0.226946
     14          1           0       -0.678553    2.142165   -0.304081
     15          6           0        1.198290    1.184431   -0.018962
     16          1           0        1.745218    2.107584    0.063278
     17          1           0       -2.929251    0.834961    1.416323
     18          1           0       -2.941500   -0.919504    1.340582
     19          1           0       -4.247732   -0.000159    0.608248
 ---------------------------------------------------------------------
                    Distance matrix (angstroms):
                    1          2          3          4          5
     1  C    0.000000
     2  C    1.531738   0.000000
     3  H    2.147754   1.085723   0.000000
     4  H    2.148089   1.085517   1.742964   0.000000
     5  C    2.539149   1.514333   2.136061   2.135481   0.000000
     6  C    3.355184   2.532550   2.681595   3.367310   1.392874
     7  H    3.407725   2.729774   2.496735   3.694909   2.139081
     8  C    4.576879   3.813523   4.041277   4.529524   2.424566
     9  H    5.366705   4.676516   4.741594   5.467684   3.399671
    10  C    5.092068   4.314305   4.792025   4.792314   2.800228
    11  O    6.409505   5.677190   6.124044   6.139252   4.163254
    12  H    6.820028   6.095975   6.648509   6.428492   4.600192
    13  C    3.392624   2.531815   3.352085   2.663781   1.389456
    14  H    3.476213   2.731595   3.673192   2.465399   2.136915
    15  C    4.607265   3.815607   4.520367   4.032300   2.424497
    16  H    5.408544   4.675519   5.451254   4.722219   3.397325
    17  H    1.085996   2.172084   3.056188   2.505755   2.804904
    18  H    1.085973   2.172502   2.506570   3.056664   2.804609
    19  H    1.086269   2.169415   2.478952   2.480247   3.477789
                    6          7          8          9         10
     6  C    0.000000
     7  H    1.076408   0.000000
     8  C    1.384103   2.124207   0.000000
     9  H    2.144840   2.455878   1.075079   0.000000
    10  C    2.395104   3.364301   1.386914   2.132272   0.000000
    11  O    3.624323   4.478161   2.355751   2.566915   1.363692
    12  H    4.305450   5.242929   3.156809   3.498457   1.913185
    13  C    2.379405   3.359555   2.762347   3.837403   2.395837
    14  H    3.360632   4.258063   3.838572   4.913588   3.363953
    15  C    2.762194   3.838512   2.399621   3.370194   1.384602
    16  H    3.838340   4.914646   3.374471   4.257212   2.135644
    17  H    3.775020   4.070052   4.801644   5.669842   5.052112
    18  H    3.172495   3.014232   4.339069   4.966306   5.050405
    19  H    4.297735   4.204785   5.582801   6.340668   6.136758
                   11         12         13         14         15
    11  O    0.000000
    12  H    0.951284   0.000000
    13  C    3.659636   3.822278   0.000000
    14  H    4.527431   4.521265   1.076335   0.000000
    15  C    2.406173   2.446057   1.387517   2.126285   0.000000
    16  H    2.657215   2.285894   2.144506   2.451696   1.076153
    17  H    6.314916   6.600204   3.228611   3.119970   4.383921
    18  H    6.298474   6.814753   3.819586   4.147248   4.838674
    19  H    7.468093   7.873547   4.327214   4.261565   5.608547
                   16         17         18         19
    16  H    0.000000
    17  H    5.030006   0.000000
    18  H    5.723643   1.756142   0.000000
    19  H    6.376129   1.757499   1.757200   0.000000
 Stoichiometry    C8H10O
 Framework group  C1[X(C8H10O)]
 Deg. of freedom    51
 Full point group                 C1      NOp   1
 Largest Abelian subgroup         C1      NOp   1
 Largest concise Abelian subgroup C1      NOp   1
                         Standard orientation:                         
 ---------------------------------------------------------------------
 Center     Atomic      Atomic             Coordinates (Angstroms)
 Number     Number       Type             X           Y           Z
 ---------------------------------------------------------------------
      1          6           0        3.176418    0.015081    0.787256
      2          6           0        2.404042   -0.037118   -0.534459
      3          1           0        2.699000    0.806015   -1.151647
      4          1           0        2.685146   -0.935230   -1.075497
      5          6           0        0.902184   -0.017313   -0.341499
      6          6           0        0.204847    1.184339   -0.242238
      7          1           0        0.737494    2.115398   -0.332077
      8          6           0       -1.163258    1.214883   -0.034639
      9          1           0       -1.690241    2.149193    0.037111
     10          6           0       -1.866063    0.024584    0.078421
     11          8           0       -3.212587    0.096944    0.281626
     12          1           0       -3.582865   -0.777156    0.343150
     13          6           0        0.173511   -1.194811   -0.226946
     14          1           0        0.678553   -2.142165   -0.304081
     15          6           0       -1.198290   -1.184431   -0.018962
     16          1           0       -1.745218   -2.107584    0.063278
     17          1           0        2.929251   -0.834961    1.416323
     18          1           0        2.941500    0.919504    1.340582
     19          1           0        4.247732    0.000159    0.608248
 ---------------------------------------------------------------------
 Rotational constants (GHZ):      4.4885896      0.9487829      0.8404308
 Standard basis: 6-31G(d) (6D, 7F)
 There are   155 symmetry adapted cartesian basis functions of A   symmetry.
 There are   155 symmetry adapted basis functions of A   symmetry.
   155 basis functions,   292 primitive gaussians,   155 cartesian basis functions
    33 alpha electrons       33 beta electrons
       nuclear repulsion energy       419.9322108240 Hartrees.
 NAtoms=   19 NActive=   19 NUniq=   19 SFac= 1.00D+00 NAtFMM=   60 NAOKFM=F Big=F
 Integral buffers will be    131072 words long.
 Raffenetti 1 integral format.
 Two-electron integral symmetry is turned on.
 ------------------------------------------------------------------------------
 Polarizable Continuum Model (PCM)
 =================================
 Model                : PCM (using non-symmetric T matrix).
 Atomic radii         : SMD-Coulomb.
 Polarization charges : Total charges.
 Charge compensation  : None.
 Solution method      : On-the-fly selection.
 Cavity type          : VdW (van der Waals Surface) (Alpha=1.000).
 Cavity algorithm     : GePol (No added spheres)
                        Default sphere list used, NSphG=   19.
                        Lebedev-Laikov grids with approx.  5.0 points / Ang**2.
                        Smoothing algorithm: York/Karplus (Gamma=1.0000).
                        Polarization charges: spherical gaussians, with
                                              point-specific exponents (IZeta= 3).
                        Self-potential: point-specific (ISelfS= 7).
                        Self-field    : sphere-specific E.n sum rule (ISelfD= 2).
 Solvent              : Water, Eps=  78.355300 Eps(inf)=   1.777849
 ------------------------------------------------------------------------------
 Spheres list:
 ISph  on   Nord     Re0    Alpha      Xe            Ye            Ze
    1   C      1    1.8500  1.000      3.176418      0.015081      0.787256
    2   C      2    1.8500  1.000      2.404042     -0.037118     -0.534459
    3   H      3    1.2000  1.000      2.699000      0.806015     -1.151647
    4   H      4    1.2000  1.000      2.685146     -0.935230     -1.075497
    5   C      5    1.8500  1.000      0.902184     -0.017313     -0.341499
    6   C      6    1.8500  1.000      0.204847      1.184339     -0.242238
    7   H      7    1.2000  1.000      0.737494      2.115398     -0.332077
    8   C      8    1.8500  1.000     -1.163258      1.214883     -0.034639
    9   H      9    1.2000  1.000     -1.690241      2.149193      0.037111
   10   C     10    1.8500  1.000     -1.866063      0.024584      0.078421
   11   O     11    1.5200  1.000     -3.212587      0.096944      0.281626
   12   H     12    1.2000  1.000     -3.582865     -0.777156      0.343150
   13   C     13    1.8500  1.000      0.173511     -1.194811     -0.226946
   14   H     14    1.2000  1.000      0.678553     -2.142165     -0.304081
   15   C     15    1.8500  1.000     -1.198290     -1.184431     -0.018962
   16   H     16    1.2000  1.000     -1.745218     -2.107584      0.063278
   17   H     17    1.2000  1.000      2.929251     -0.834961      1.416323
   18   H     18    1.2000  1.000      2.941500      0.919504      1.340582
   19   H     19    1.2000  1.000      4.247732      0.000159      0.608248
 ------------------------------------------------------------------------------
 ------------------------------------------------------------------------------
 Atomic radii for non-electrostatic terms: SMD-CDS.
 ------------------------------------------------------------------------------
 Nuclear repulsion after PCM non-electrostatic terms =      419.9387445010 Hartrees.
 One-electron integrals computed using PRISM.
 NBasis=   155 RedAO= T EigKep=  4.07D-04  NBF=   155
 NBsUse=   155 1.00D-06 EigRej= -1.00D+00 NBFU=   155
 ExpMin= 1.61D-01 ExpMax= 5.48D+03 ExpMxC= 8.25D+02 IAcc=1 IRadAn=         1 AccDes= 0.00D+00
 Harris functional with IExCor=  205 and IRadAn=       1 diagonalized for initial guess.
 HarFok:  IExCor=  205 AccDes= 0.00D+00 IRadAn=         1 IDoV= 1 UseB2=F ITyADJ=14
 ICtDFT=  3500011 ScaDFX=  1.000000  1.000000  1.000000  1.000000
 FoFCou: FMM=F IPFlag=           0 FMFlag=      100000 FMFlg1=           0
         NFxFlg=           0 DoJE=T BraDBF=F KetDBF=T FulRan=T
         wScrn=  0.000000 ICntrl=     500 IOpCl=  0 I1Cent=   200000004 NGrid=           0
         NMat0=    1 NMatS0=      1 NMatT0=    0 NMatD0=    1 NMtDS0=    0 NMtDT0=    0
 Petite list used in FoFCou.
 Keep R1 ints in memory in canonical form, NReq=78551823.
 Requested convergence on RMS density matrix=1.00D-08 within 128 cycles.
 Requested convergence on MAX density matrix=1.00D-06.
 Requested convergence on             energy=1.00D-06.
 No special actions if energy rises.
 Inv3:  Mode=1 IEnd=     6316203.
 Iteration    1 A*A^-1 deviation from unit magnitude is 5.77D-15 for   1449.
 Iteration    1 A*A^-1 deviation from orthogonality  is 3.97D-15 for   1449    395.
 Iteration    1 A^-1*A deviation from unit magnitude is 5.88D-15 for   1449.
 Iteration    1 A^-1*A deviation from orthogonality  is 2.26D-08 for   1140   1071.
 Iteration    2 A*A^-1 deviation from unit magnitude is 3.11D-15 for    250.
 Iteration    2 A*A^-1 deviation from orthogonality  is 3.53D-15 for   1430    111.
 Iteration    2 A^-1*A deviation from unit magnitude is 1.22D-15 for    280.
 Iteration    2 A^-1*A deviation from orthogonality  is 5.76D-16 for   1416    431.
 Error on total polarization charges =  0.03793
 SCF Done:  E(RHF) =  -383.638683541     A.U. after   14 cycles
            NFock= 14  Conv=0.38D-08     -V/T= 2.0011
 SMD-CDS (non-electrostatic) energy       (kcal/mol) =       4.10
 (included in total energy above)

 **********************************************************************

            Population analysis using the SCF density.

 **********************************************************************

 Orbital symmetries:
 BldTbl:  Degeneracy threshold= 1.00D-02
       Occupied  (A) (A) (A) (A) (A) (A) (A) (A) (A) (A) (A) (A)
                 (A) (A) (A) (A) (A) (A) (A) (A) (A) (A) (A) (A)
                 (A) (A) (A) (A) (A) (A) (A) (A) (A)
       Virtual   (A) (A) (A) (A) (A) (A) (A) (A) (A) (A) (A) (A)
                 (A) (A) (A) (A) (A) (A) (A) (A) (A) (A) (A) (A)
                 (A) (A) (A) (A) (A) (A) (A) (A) (A) (A) (A) (A)
                 (A) (A) (A) (A) (A) (A) (A) (A) (A) (A) (A) (A)
                 (A) (A) (A) (A) (A) (A) (A) (A) (A) (A) (A) (A)
                 (A) (A) (A) (A) (A) (A) (A) (A) (A) (A) (A) (A)
                 (A) (A) (A) (A) (A) (A) (A) (A) (A) (A) (A) (A)
                 (A) (A) (A) (A) (A) (A) (A) (A) (A) (A) (A) (A)
                 (A) (A) (A) (A) (A) (A) (A) (A) (A) (A) (A) (A)
                 (A) (A) (A) (A) (A) (A) (A) (A) (A) (A) (A) (A)
                 (A) (A)
 The electronic state is 1-A.
 Alpha  occ. eigenvalues --  -20.58803 -11.29449 -11.22909 -11.22882 -11.22556
 Alpha  occ. eigenvalues --  -11.22337 -11.22214 -11.21583 -11.20465  -1.40139
 Alpha  occ. eigenvalues --   -1.15105  -1.05226  -1.01509  -0.97311  -0.85797
 Alpha  occ. eigenvalues --   -0.83867  -0.78938  -0.72907  -0.66834  -0.64095
 Alpha  occ. eigenvalues --   -0.60711  -0.59201  -0.58737  -0.58122  -0.56353
 Alpha  occ. eigenvalues --   -0.55069  -0.51689  -0.49102  -0.47174  -0.47089
 Alpha  occ. eigenvalues --   -0.46539  -0.33833  -0.30277
 Alpha virt. eigenvalues --    0.14156   0.16264   0.24779   0.25488   0.27628
 Alpha virt. eigenvalues --    0.29378   0.31084   0.32750   0.33296   0.34738
 Alpha virt. eigenvalues --    0.35586   0.37013   0.37146   0.41591   0.44716
 Alpha virt. eigenvalues --    0.46472   0.50635   0.53071   0.54266   0.56234
 Alpha virt. eigenvalues --    0.70710   0.70797   0.72562   0.73668   0.73887
 Alpha virt. eigenvalues --    0.75270   0.76606   0.81212   0.83155   0.83183
 Alpha virt. eigenvalues --    0.84098   0.84718   0.88044   0.90412   0.90670
 Alpha virt. eigenvalues --    0.93075   0.93994   0.99584   1.00428   1.05175
 Alpha virt. eigenvalues --    1.08454   1.10146   1.11767   1.12399   1.13766
 Alpha virt. eigenvalues --    1.16962   1.17191   1.18340   1.19367   1.20538
 Alpha virt. eigenvalues --    1.23194   1.23631   1.24393   1.26133   1.26892
 Alpha virt. eigenvalues --    1.29361   1.32096   1.34217   1.41979   1.45008
 Alpha virt. eigenvalues --    1.46170   1.50762   1.52607   1.58357   1.62580
 Alpha virt. eigenvalues --    1.68384   1.72409   1.73106   1.74647   1.75005
 Alpha virt. eigenvalues --    1.79892   1.82324   1.97594   2.00822   2.02501
 Alpha virt. eigenvalues --    2.03709   2.09705   2.10881   2.13904   2.17222
 Alpha virt. eigenvalues --    2.23910   2.26392   2.28165   2.28557   2.32839
 Alpha virt. eigenvalues --    2.35164   2.37345   2.41601   2.45711   2.46441
 Alpha virt. eigenvalues --    2.49642   2.59798   2.59858   2.60826   2.65089
 Alpha virt. eigenvalues --    2.67805   2.68714   2.74328   2.75997   2.79217
 Alpha virt. eigenvalues --    2.84665   2.93937   2.95849   2.98203   3.03045
 Alpha virt. eigenvalues --    3.03476   3.12214   3.16239   3.24502   3.27918
 Alpha virt. eigenvalues --    3.31961   3.51730   3.83820   4.36505   4.54417
 Alpha virt. eigenvalues --    4.54946   4.60652   4.66801   4.76511   4.86369
 Alpha virt. eigenvalues --    4.92843   5.19493
          Condensed to atoms (all electrons):
               1          2          3          4          5          6
     1  C    5.136923   0.330260  -0.040303  -0.039459  -0.060545  -0.002774
     2  C    0.330260   5.060538   0.406985   0.407562   0.327898  -0.045768
     3  H   -0.040303   0.406985   0.525678  -0.028086  -0.045537  -0.003015
     4  H   -0.039459   0.407562  -0.028086   0.523912  -0.046258   0.002938
     5  C   -0.060545   0.327898  -0.045537  -0.046258   4.883298   0.563872
     6  C   -0.002774  -0.045768  -0.003015   0.002938   0.563872   4.940981
     7  H    0.000283  -0.002179   0.001676  -0.000001  -0.030471   0.382109
     8  C   -0.000065   0.002674   0.000167  -0.000051  -0.054732   0.540289
     9  H    0.000002  -0.000090  -0.000003   0.000002   0.002114  -0.025153
    10  C    0.000018   0.000285  -0.000008  -0.000012  -0.023302  -0.046693
    11  O   -0.000000   0.000000  -0.000000  -0.000000   0.000106   0.002070
    12  H    0.000000  -0.000000   0.000000   0.000000  -0.000003  -0.000137
    13  C   -0.002717  -0.044620   0.002723  -0.002774   0.571620  -0.046857
    14  H    0.000260  -0.002234   0.000000   0.001841  -0.029165   0.002979
    15  C   -0.000079   0.002925  -0.000060   0.000202  -0.054731  -0.032620
    16  H    0.000002  -0.000093   0.000002  -0.000004   0.001778   0.000142
    17  H    0.390998  -0.037789   0.004021  -0.002468  -0.002367   0.000398
    18  H    0.391428  -0.037659  -0.002449   0.003959  -0.002675   0.001773
    19  H    0.387836  -0.036382  -0.002170  -0.002265   0.005829  -0.000024
               7          8          9         10         11         12
     1  C    0.000283  -0.000065   0.000002   0.000018  -0.000000   0.000000
     2  C   -0.002179   0.002674  -0.000090   0.000285   0.000000  -0.000000
     3  H    0.001676   0.000167  -0.000003  -0.000008  -0.000000   0.000000
     4  H   -0.000001  -0.000051   0.000002  -0.000012  -0.000000   0.000000
     5  C   -0.030471  -0.054732   0.002114  -0.023302   0.000106  -0.000003
     6  C    0.382109   0.540289  -0.025153  -0.046693   0.002070  -0.000137
     7  H    0.441646  -0.028747  -0.001836   0.002066  -0.000045   0.000003
     8  C   -0.028747   5.000975   0.377833   0.576309  -0.049261   0.003458
     9  H   -0.001836   0.377833   0.438825  -0.031899   0.000370  -0.000136
    10  C    0.002066   0.576309  -0.031899   4.414075   0.249541  -0.025300
    11  O   -0.000045  -0.049261   0.000370   0.249541   8.402703   0.264785
    12  H    0.000003   0.003458  -0.000136  -0.025300   0.264785   0.247936
    13  C    0.003120  -0.033080  -0.000140  -0.041273   0.004005   0.000385
    14  H   -0.000111   0.000220   0.000010   0.001253  -0.000042  -0.000006
    15  C    0.000099  -0.060085   0.003727   0.566228  -0.053845   0.000954
    16  H    0.000009   0.002673  -0.000093  -0.029920  -0.002478   0.003232
    17  H    0.000002  -0.000007   0.000000  -0.000009   0.000000   0.000000
    18  H    0.000238  -0.000028   0.000002  -0.000008   0.000000   0.000000
    19  H   -0.000013   0.000000  -0.000000  -0.000000   0.000000  -0.000000
              13         14         15         16         17         18
     1  C   -0.002717   0.000260  -0.000079   0.000002   0.390998   0.391428
     2  C   -0.044620  -0.002234   0.002925  -0.000093  -0.037789  -0.037659
     3  H    0.002723   0.000000  -0.000060   0.000002   0.004021  -0.002449
     4  H   -0.002774   0.001841   0.000202  -0.000004  -0.002468   0.003959
     5  C    0.571620  -0.029165  -0.054731   0.001778  -0.002367  -0.002675
     6  C   -0.046857   0.002979  -0.032620   0.000142   0.000398   0.001773
     7  H    0.003120  -0.000111   0.000099   0.000009   0.000002   0.000238
     8  C   -0.033080   0.000220  -0.060085   0.002673  -0.000007  -0.000028
     9  H   -0.000140   0.000010   0.003727  -0.000093   0.000000   0.000002
    10  C   -0.041273   0.001253   0.566228  -0.029920  -0.000009  -0.000008
    11  O    0.004005  -0.000042  -0.053845  -0.002478   0.000000   0.000000
    12  H    0.000385  -0.000006   0.000954   0.003232   0.000000   0.000000
    13  C    4.967074   0.380167   0.501703  -0.023826   0.001647   0.000369
    14  H    0.380167   0.439853  -0.026576  -0.001413   0.000175   0.000001
    15  C    0.501703  -0.026576   5.074744   0.378388  -0.000031  -0.000005
    16  H   -0.023826  -0.001413   0.378388   0.429971   0.000002  -0.000000
    17  H    0.001647   0.000175  -0.000031   0.000002   0.532454  -0.027702
    18  H    0.000369   0.000001  -0.000005  -0.000000  -0.027702   0.531820
    19  H   -0.000018  -0.000011   0.000000  -0.000000  -0.026323  -0.026432
              19
     1  C    0.387836
     2  C   -0.036382
     3  H   -0.002170
     4  H   -0.002265
     5  C    0.005829
     6  C   -0.000024
     7  H   -0.000013
     8  C    0.000000
     9  H   -0.000000
    10  C   -0.000000
    11  O    0.000000
    12  H   -0.000000
    13  C   -0.000018
    14  H   -0.000011
    15  C    0.000000
    16  H   -0.000000
    17  H   -0.026323
    18  H   -0.026432
    19  H    0.531690
 Mulliken charges:
               1
     1  C   -0.492066
     2  C   -0.332314
     3  H    0.180382
     4  H    0.180962
     5  C   -0.006729
     6  C   -0.234508
     7  H    0.232153
     8  C   -0.278541
     9  H    0.236465
    10  C    0.388649
    11  O   -0.817910
    12  H    0.504828
    13  C   -0.237509
    14  H    0.232798
    15  C   -0.300939
    16  H    0.241629
    17  H    0.167001
    18  H    0.167368
    19  H    0.168282
 Sum of Mulliken charges =  -0.00000
 Mulliken charges with hydrogens summed into heavy atoms:
               1
     1  C    0.010585
     2  C    0.029030
     5  C   -0.006729
     6  C   -0.002355
     8  C   -0.042076
    10  C    0.388649
    11  O   -0.313083
    13  C   -0.004711
    15  C   -0.059310
 DipInt: DoE/N= T F RetVal/Mat= T F Init=T NMatP=  1 IDeriv=0 Min/MaxMlt=  0  4
 Entering OneElI...
 OneElI was handed   134153609 working-precision words.
 Multipole integrals L=0 to 4 MinM= 0 MaxM= 0.
 Requested accuracy = 0.1000D-12
 ShPair: Thresh= 1.00D-13 NBox=     0 BxSize= 0.00D+00 RnKept= 1.49D+01
         NSMCal=                 1596 NSMKep=                1495
 PrsmSu:  NPrtUS=   1 ThrOK=F IAlg=1 NPAlg=1 LenDen=           0.
 Prism:   IPart=     0 DynPar=F LinDyn=F Incr=          14.
 PRISM was handed   134019434 working-precision words and  1495 shell-pairs
 IPart=  0 NShTot=        1495 NBatch=          44 AvBLen=        34.0
 PrSmSu:  NxtVal=             15.
 Electronic moments (au):
        -66.00000000          0.29353126         -0.79827186         -0.04597135
      -1074.25157118       -235.30234459        -94.81659532          5.57805334
         -1.14267591         -0.58729040       -474.58943081         -4.12743581
        -26.81300921        119.33809314        -23.07892215       -504.98333638
       -230.96070254         -0.81746604         42.06022528         -4.53571577
     -35777.96558442      -2450.88239489       -523.18098449        136.67658511
      -1136.57266840          7.34484625          1.85041723       -208.12687012
          0.52189072      -1805.77698175      -2149.26555005       -294.35712374
        -37.68676870          9.67045206          4.25832177
 Electronic spatial extent (au):  <R**2>=           1404.3705
 DipInt: DoE/N= F T RetVal/Mat= T F Init=T NMatP=  1 IDeriv=0 Min/MaxMlt=  0  4
 Nuclear    moments (au):
         66.00000000          0.00000000          0.00000000         -0.00000000
       1036.45987619        200.48027304         51.62352244          0.00000000
          0.00003086         -0.00002888        451.90733501          1.09573010
         30.22137913       -135.49414893        -15.97692931        504.56379386
        227.44073775         -0.00137227        -41.98201761          8.22062538
      32203.69274284       1706.45477866        171.96964742        137.10337097
       1076.49921167         13.05166618         -4.05760008        191.07395237
         -2.44073743       1133.61624028       1450.94522353         86.23764837
         11.28809106        -27.64200383          1.78290302
 Total      moments (au):
         -0.00000000          0.29353126         -0.79827186         -0.04597135
        -37.79169499        -34.82207155        -43.19307288          5.57805334
         -1.14264505         -0.58731927        -22.68209580         -3.03170570
          3.40836991        -16.15605579        -39.05585146         -0.41954252
         -3.51996479         -0.81883831          0.07820767          3.68490961
      -3574.27284158       -744.42761623       -351.21133707        273.77995607
        -60.07345672         20.39651243         -2.20718285        -17.05291775
         -1.91884671       -672.16074147       -698.32032652       -208.11947537
        -26.39867764        -17.97155176          6.04122479
 Traceless Quadrup. (au):
          0.81058482          3.78020826         -4.59079307          5.57805334
         -1.14264505         -0.58731927
 Charge=             -0.0000 electrons
 Dipole moment (field-independent basis, Debye):
    X=              0.7461    Y=             -2.0290    Z=             -0.1168  Tot=              2.1650
 Quadrupole moment (field-independent basis, Debye-Ang):
   XX=            -50.8311   YY=            -46.8369   ZZ=            -58.0962
   XY=              7.5027   XZ=             -1.5369   YZ=             -0.7900
 Traceless Quadrupole moment (field-independent basis, Debye-Ang):
   XX=              1.0903   YY=              5.0845   ZZ=             -6.1748
   XY=              7.5027   XZ=             -1.5369   YZ=             -0.7900
 Octapole moment (field-independent basis, Debye-Ang**2):
  XXX=            -16.1442  YYY=             -2.1579  ZZZ=              2.4259  XYY=            -11.4993
  XXY=            -27.7984  XXZ=             -0.2986  XZZ=             -2.5054  YZZ=             -0.5828
  YYZ=              0.0557  XYZ=              2.6228
 Hexadecapole moment (field-independent basis, Debye-Ang**3):
 XXXX=          -1346.2425 YYYY=           -280.3871 ZZZZ=           -132.2830 XXXY=            103.1187
 XXXZ=            -22.6265 YYYX=              7.6823 YYYZ=             -0.8313 ZZZX=             -6.4229
 ZZZY=             -0.7227 XXYY=           -253.1679 XXZZ=           -263.0209 YYZZ=            -78.3878
 XXYZ=             -9.9430 YYXZ=             -6.7689 ZZXY=              2.2754
 N-N= 4.199387445010D+02 E-N=-1.736369758529D+03  KE= 3.832157074391D+02
 Entering OneElI...
 OneElI was handed   134165069 working-precision words.
 Calculate electrostatic properties
    NBasis =   155  MinDer = 0  MaxDer = 0
    NGrid  =    19  NMatD  =   1
 Requested accuracy = 0.1000D-12
 ShPair: Thresh= 1.00D-13 NBox=     0 BxSize= 0.00D+00 RnKept= 1.49D+01
         NSMCal=                 1596 NSMKep=                1425
 PrsmSu:  NPrtUS=   1 ThrOK=F IAlg=1 NPAlg=1 LenDen=           0.
 Prism:   IPart=     0 DynPar=F LinDyn=F Incr=         270.
 PRISM was handed   134038876 working-precision words and  1425 shell-pairs
 IPart=  0 NShTot=       27075 NBatch=        1425 AvBLen=        19.0
 PrSmSu:  NxtVal=            271.
 --------------------------------------------------------
       Center         ----      EFG at Nuclei      ----
                      3XX-RR        3YY-RR        3ZZ-RR
 --------------------------------------------------------
     1   Atom        0.006973      0.021643     -0.028616
     2   Atom       -0.056490      0.056514     -0.000024
     3   Atom        0.116226     -0.124260      0.008034
     4   Atom        0.119016     -0.162254      0.043238
     5   Atom        0.123617      0.172790     -0.296407
     6   Atom        0.177490      0.175314     -0.352804
     7   Atom        0.034240     -0.203681      0.169441
     8   Atom        0.152054      0.094437     -0.246491
     9   Atom        0.037733     -0.212273      0.174540
    10   Atom       -0.162379      0.417097     -0.254718
    11   Atom       -1.268089     -0.248556      1.516645
    12   Atom        0.106000     -0.379599      0.273599
    13   Atom        0.173269      0.176655     -0.349923
    14   Atom        0.045130     -0.215860      0.170730
    15   Atom        0.143347      0.090089     -0.233436
    16   Atom        0.020936     -0.197698      0.176762
    17   Atom        0.133653     -0.131141     -0.002512
    18   Atom        0.136076     -0.169158      0.033083
    19   Atom       -0.299793      0.160269      0.139524
 --------------------------------------------------------
                        XY            XZ            YZ
 --------------------------------------------------------
     1   Atom       -0.001054     -0.027404     -0.001828
     2   Atom        0.001668      0.001124     -0.002200
     3   Atom       -0.095918      0.070631      0.206339
     4   Atom        0.097234      0.058953     -0.192899
     5   Atom        0.001413     -0.052826     -0.002402
     6   Atom       -0.024179     -0.082998     -0.004537
     7   Atom       -0.201979      0.023323      0.034474
     8   Atom       -0.004386     -0.060565     -0.001904
     9   Atom        0.203677      0.019411     -0.027488
    10   Atom        0.009901     -0.014007     -0.004364
    11   Atom       -0.689194      0.436749      0.116210
    12   Atom       -0.253400      0.027675      0.042462
    13   Atom        0.023597     -0.081781      0.000106
    14   Atom        0.194876      0.019923     -0.029966
    15   Atom       -0.003269     -0.057020     -0.000088
    16   Atom       -0.203239      0.024072      0.030568
    17   Atom       -0.086967      0.058169      0.212461
    18   Atom        0.087540      0.047670     -0.198866
    19   Atom        0.006338      0.075566     -0.001409
 --------------------------------------------------------


 ---------------------------------------------------------------------------------
              Nuclear Quadrupole Coupling Constant in Principal Axis System
 ---------------------------------------------------------------------------------

       Atom             a.u.   MegaHertz   Gauss  10(-4) cm-1        Axes


 ---------------------------------------------------------------------------------

 No NMR shielding tensors so no spin-rotation constants.
 Leave Link  601 at Mon Dec 12 17:07:46 2022, MaxMem=   134217728 cpu:         0.1
 FitSet:  NAtFit=    19 NAtPot=    19 NAtFrz=     0 MDM=    23 TotChg=   0.00000
 Merz-Kollman atomic radii used.
 Atom Element Radius
    1     6    1.50
    2     6    1.50
    3     1    1.20
    4     1    1.20
    5     6    1.50
    6     6    1.50
    7     1    1.20
    8     6    1.50
    9     1    1.20
   10     6    1.50
   11     8    1.40
   12     1    1.20
   13     6    1.50
   14     1    1.20
   15     6    1.50
   16     1    1.20
   17     1    1.20
   18     1    1.20
   19     1    1.20
 Generate VDW surfaces: Layer= 4 Dens= 6 Start= 1.400 Inc= 0.200

 **********************************************************************

            Electrostatic Properties Using The SCF Density

 **********************************************************************

       Atomic Center    1 is at   3.176418  0.015081  0.787256
       Atomic Center    2 is at   2.404042 -0.037118 -0.534459
       Atomic Center    3 is at   2.699000  0.806015 -1.151647
       Atomic Center    4 is at   2.685146 -0.935230 -1.075497
       Atomic Center    5 is at   0.902184 -0.017313 -0.341499
       Atomic Center    6 is at   0.204847  1.184339 -0.242238
       Atomic Center    7 is at   0.737494  2.115398 -0.332077
       Atomic Center    8 is at  -1.163258  1.214883 -0.034639
       Atomic Center    9 is at  -1.690241  2.149193  0.037111
       Atomic Center   10 is at  -1.866063  0.024584  0.078421
       Atomic Center   11 is at  -3.212587  0.096944  0.281626
       Atomic Center   12 is at  -3.582865 -0.777156  0.343150
       Atomic Center   13 is at   0.173511 -1.194811 -0.226946
       Atomic Center   14 is at   0.678553 -2.142165 -0.304081
       Atomic Center   15 is at  -1.198290 -1.184431 -0.018962
       Atomic Center   16 is at  -1.745218 -2.107584  0.063278
       Atomic Center   17 is at   2.929251 -0.834961  1.416323
       Atomic Center   18 is at   2.941500  0.919504  1.340582
       Atomic Center   19 is at   4.247732  0.000159  0.608248
      ESP Fit Center   20 is at   3.176418  0.015081  2.887256
      ESP Fit Center   21 is at   3.586108  0.015081  2.846905
      ESP Fit Center   22 is at   3.980053  0.015081  2.727403
      ESP Fit Center   23 is at   3.872386  0.416898  2.727403
      ESP Fit Center   24 is at   4.343115  0.015081  2.533342
      ESP Fit Center   25 is at   4.264331  0.436540  2.533342
      ESP Fit Center   26 is at   4.264331 -0.406379  2.533342
      ESP Fit Center   27 is at   4.661342  0.015081  2.272180
      ESP Fit Center   28 is at   4.601192  0.433432  2.272180
      ESP Fit Center   29 is at   4.425616  0.817891  2.272180
      ESP Fit Center   30 is at   1.691494  0.015081  2.272180
      ESP Fit Center   31 is at   4.425616 -0.787730  2.272180
      ESP Fit Center   32 is at   4.601192 -0.403271  2.272180
      ESP Fit Center   33 is at   1.430332  0.015081  1.953953
      ESP Fit Center   34 is at   4.343115  1.761167  0.787256
      ESP Fit Center   35 is at   4.343115 -1.731005  0.787256
      ESP Fit Center   36 is at   4.265898  1.762990  0.377566
      ESP Fit Center   37 is at   3.891745  1.946521  0.377566
      ESP Fit Center   38 is at   3.891745 -1.916360  0.377566
      ESP Fit Center   39 is at   4.265898 -1.732829  0.377566
      ESP Fit Center   40 is at   4.085199  1.729224 -0.016379
      ESP Fit Center   41 is at   3.695462  1.884509 -0.016379
      ESP Fit Center   42 is at   3.281455  1.952382 -0.016379
      ESP Fit Center   43 is at   3.695462 -1.854348 -0.016379
      ESP Fit Center   44 is at   4.085199 -1.699063 -0.016379
      ESP Fit Center   45 is at   4.168308  1.452081 -0.379442
      ESP Fit Center   46 is at   4.168308 -1.421920 -0.379442
      ESP Fit Center   47 is at   4.344189 -0.037118 -1.338094
      ESP Fit Center   48 is at   4.298829 -0.454193 -1.338094
      ESP Fit Center   49 is at   4.150128 -0.037118 -1.701157
      ESP Fit Center   50 is at   3.888966 -0.037118 -2.019383
      ESP Fit Center   51 is at   1.412096 -0.651305 -2.280545
      ESP Fit Center   52 is at   1.708073  0.364699 -2.474606
      ESP Fit Center   53 is at   1.600407 -0.037118 -2.474606
      ESP Fit Center   54 is at   1.708073 -0.438936 -2.474606
      ESP Fit Center   55 is at   1.994352 -0.037118 -2.594108
      ESP Fit Center   56 is at   2.199197 -0.391920 -2.594108
      ESP Fit Center   57 is at   2.404042 -0.037118 -2.634459
      ESP Fit Center   58 is at   2.808609  1.988887  0.036292
      ESP Fit Center   59 is at   3.606129  1.943519 -0.311647
      ESP Fit Center   60 is at   3.230543  2.160364 -0.311647
      ESP Fit Center   61 is at   2.807727  2.256869 -0.311647
      ESP Fit Center   62 is at   4.266461  1.226015 -0.716831
      ESP Fit Center   63 is at   4.104347  1.617392 -0.716831
      ESP Fit Center   64 is at   3.846461  1.953476 -0.716831
      ESP Fit Center   65 is at   3.510378  2.211362 -0.716831
      ESP Fit Center   66 is at   3.119000  2.373476 -0.716831
      ESP Fit Center   67 is at   2.699000  2.428770 -0.716831
      ESP Fit Center   68 is at   4.379000  0.806015 -1.151647
      ESP Fit Center   69 is at   4.326220  1.223814 -1.151647
      ESP Fit Center   70 is at   4.171195  1.615361 -1.151647
      ESP Fit Center   71 is at   3.923667  1.956054 -1.151647
      ESP Fit Center   72 is at   3.599189  2.224486 -1.151647
      ESP Fit Center   73 is at   3.218149  2.403790 -1.151647
      ESP Fit Center   74 is at   2.804488  2.482700 -1.151647
      ESP Fit Center   75 is at   2.384199  2.456257 -1.151647
      ESP Fit Center   76 is at   4.321755  0.806015 -1.586463
      ESP Fit Center   77 is at   4.266461  1.226015 -1.586463
      ESP Fit Center   78 is at   4.104347  1.617392 -1.586463
      ESP Fit Center   79 is at   3.846461  1.953476 -1.586463
      ESP Fit Center   80 is at   3.510378  2.211362 -1.586463
      ESP Fit Center   81 is at   3.119000  2.373476 -1.586463
      ESP Fit Center   82 is at   2.699000  2.428770 -1.586463
      ESP Fit Center   83 is at   2.279000  2.373476 -1.586463
      ESP Fit Center   84 is at   1.887622  2.211362 -1.586463
      ESP Fit Center   85 is at   4.266461  0.386015 -1.586463
      ESP Fit Center   86 is at   4.153923  0.806015 -1.991647
      ESP Fit Center   87 is at   4.089285  1.234861 -1.991647
      ESP Fit Center   88 is at   3.901114  1.625602 -1.991647
      ESP Fit Center   89 is at   3.606129  1.943519 -1.991647
      ESP Fit Center   90 is at   3.230543  2.160364 -1.991647
      ESP Fit Center   91 is at   2.807727  2.256869 -1.991647
      ESP Fit Center   92 is at   2.375249  2.224459 -1.991647
      ESP Fit Center   93 is at   1.971539  2.066015 -1.991647
      ESP Fit Center   94 is at   1.632466  1.795613 -1.991647
      ESP Fit Center   95 is at   1.388160  1.437282 -1.991647
      ESP Fit Center   96 is at   4.089285  0.377169 -1.991647
      ESP Fit Center   97 is at   3.886939  0.806015 -2.339586
      ESP Fit Center   98 is at   3.806721  1.235148 -2.339586
      ESP Fit Center   99 is at   3.576898  1.606324 -2.339586
      ESP Fit Center  100 is at   3.228510  1.869414 -2.339586
      ESP Fit Center  101 is at   2.808609  1.988887 -2.339586
      ESP Fit Center  102 is at   2.373905  1.948605 -2.339586
      ESP Fit Center  103 is at   1.983107  1.754011 -2.339586
      ESP Fit Center  104 is at   1.688994  1.431384 -2.339586
      ESP Fit Center  105 is at   1.531288  1.024298 -2.339586
      ESP Fit Center  106 is at   1.531288  0.587731 -2.339586
      ESP Fit Center  107 is at   3.576898  0.005705 -2.339586
      ESP Fit Center  108 is at   3.806721  0.376882 -2.339586
      ESP Fit Center  109 is at   3.539000  0.806015 -2.606570
      ESP Fit Center  110 is at   3.426461  1.226015 -2.606570
      ESP Fit Center  111 is at   3.119000  1.533476 -2.606570
      ESP Fit Center  112 is at   2.699000  1.646015 -2.606570
      ESP Fit Center  113 is at   2.279000  1.533476 -2.606570
      ESP Fit Center  114 is at   1.971539  1.226015 -2.606570
      ESP Fit Center  115 is at   1.859000  0.806015 -2.606570
      ESP Fit Center  116 is at   1.971539  0.386015 -2.606570
      ESP Fit Center  117 is at   3.119000  0.078553 -2.606570
      ESP Fit Center  118 is at   3.426461  0.386015 -2.606570
      ESP Fit Center  119 is at   3.133816  0.806015 -2.774402
      ESP Fit Center  120 is at   2.916408  1.182576 -2.774402
      ESP Fit Center  121 is at   2.481592  1.182576 -2.774402
      ESP Fit Center  122 is at   2.264184  0.806015 -2.774402
      ESP Fit Center  123 is at   2.481592  0.429453 -2.774402
      ESP Fit Center  124 is at   2.916408  0.429453 -2.774402
      ESP Fit Center  125 is at   2.699000  0.806015 -2.831647
      ESP Fit Center  126 is at   2.360051 -2.077821  0.112442
      ESP Fit Center  127 is at   2.794755 -2.118102  0.112442
      ESP Fit Center  128 is at   3.214656 -1.998630  0.112442
      ESP Fit Center  129 is at   2.361395 -2.353675 -0.235497
      ESP Fit Center  130 is at   2.793872 -2.386085 -0.235497
      ESP Fit Center  131 is at   3.216689 -2.289580 -0.235497
      ESP Fit Center  132 is at   3.592275 -2.072735 -0.235497
      ESP Fit Center  133 is at   3.887259 -1.754817 -0.235497
      ESP Fit Center  134 is at   2.685146 -2.557986 -0.640681
      ESP Fit Center  135 is at   3.105146 -2.502692 -0.640681
      ESP Fit Center  136 is at   3.496524 -2.340578 -0.640681
      ESP Fit Center  137 is at   3.832607 -2.082692 -0.640681
      ESP Fit Center  138 is at   4.090493 -1.746608 -0.640681
      ESP Fit Center  139 is at   4.252607 -1.355230 -0.640681
      ESP Fit Center  140 is at   4.365146 -0.935230 -1.075497
      ESP Fit Center  141 is at   2.370345 -2.585473 -1.075497
      ESP Fit Center  142 is at   2.790634 -2.611915 -1.075497
      ESP Fit Center  143 is at   3.204294 -2.533005 -1.075497
      ESP Fit Center  144 is at   3.585335 -2.353701 -1.075497
      ESP Fit Center  145 is at   3.909813 -2.085269 -1.075497
      ESP Fit Center  146 is at   4.157341 -1.744576 -1.075497
      ESP Fit Center  147 is at   4.312366 -1.353029 -1.075497
      ESP Fit Center  148 is at   4.307901 -0.935230 -1.510313
      ESP Fit Center  149 is at   4.252607 -0.515230 -1.510313
      ESP Fit Center  150 is at   1.873768 -2.340578 -1.510313
      ESP Fit Center  151 is at   2.265146 -2.502692 -1.510313
      ESP Fit Center  152 is at   2.685146 -2.557986 -1.510313
      ESP Fit Center  153 is at   3.105146 -2.502692 -1.510313
      ESP Fit Center  154 is at   3.496524 -2.340578 -1.510313
      ESP Fit Center  155 is at   3.832607 -2.082692 -1.510313
      ESP Fit Center  156 is at   4.090493 -1.746608 -1.510313
      ESP Fit Center  157 is at   4.252607 -1.355230 -1.510313
      ESP Fit Center  158 is at   4.140069 -0.935230 -1.915497
      ESP Fit Center  159 is at   4.075430 -0.506384 -1.915497
      ESP Fit Center  160 is at   1.374306 -1.566498 -1.915497
      ESP Fit Center  161 is at   1.618612 -1.924829 -1.915497
      ESP Fit Center  162 is at   1.957685 -2.195230 -1.915497
      ESP Fit Center  163 is at   2.361395 -2.353675 -1.915497
      ESP Fit Center  164 is at   2.793872 -2.386085 -1.915497
      ESP Fit Center  165 is at   3.216689 -2.289580 -1.915497
      ESP Fit Center  166 is at   3.592275 -2.072735 -1.915497
      ESP Fit Center  167 is at   3.887259 -1.754817 -1.915497
      ESP Fit Center  168 is at   4.075430 -1.364076 -1.915497
      ESP Fit Center  169 is at   3.873085 -0.935230 -2.263436
      ESP Fit Center  170 is at   3.792866 -0.506097 -2.263436
      ESP Fit Center  171 is at   1.517433 -1.153514 -2.263436
      ESP Fit Center  172 is at   1.675139 -1.560600 -2.263436
      ESP Fit Center  173 is at   1.969253 -1.883226 -2.263436
      ESP Fit Center  174 is at   2.360051 -2.077821 -2.263436
      ESP Fit Center  175 is at   2.794755 -2.118102 -2.263436
      ESP Fit Center  176 is at   3.214656 -1.998630 -2.263436
      ESP Fit Center  177 is at   3.563044 -1.735540 -2.263436
      ESP Fit Center  178 is at   3.792866 -1.364363 -2.263436
      ESP Fit Center  179 is at   3.525146 -0.935230 -2.530420
      ESP Fit Center  180 is at   3.412607 -0.515230 -2.530420
      ESP Fit Center  181 is at   3.105146 -0.207769 -2.530420
      ESP Fit Center  182 is at   1.957685 -0.515230 -2.530420
      ESP Fit Center  183 is at   1.845146 -0.935230 -2.530420
      ESP Fit Center  184 is at   1.957685 -1.355230 -2.530420
      ESP Fit Center  185 is at   2.265146 -1.662692 -2.530420
      ESP Fit Center  186 is at   2.685146 -1.775230 -2.530420
      ESP Fit Center  187 is at   3.105146 -1.662692 -2.530420
      ESP Fit Center  188 is at   3.412607 -1.355230 -2.530420
      ESP Fit Center  189 is at   3.119962 -0.935230 -2.698252
      ESP Fit Center  190 is at   2.902554 -0.558669 -2.698252
      ESP Fit Center  191 is at   2.467738 -0.558669 -2.698252
      ESP Fit Center  192 is at   2.250330 -0.935230 -2.698252
      ESP Fit Center  193 is at   2.467738 -1.311792 -2.698252
      ESP Fit Center  194 is at   2.902554 -1.311792 -2.698252
      ESP Fit Center  195 is at   2.685146 -0.935230 -2.755497
      ESP Fit Center  196 is at   0.902184 -0.017313  1.758501
      ESP Fit Center  197 is at   1.107029  0.337488  1.718150
      ESP Fit Center  198 is at   0.697339  0.337488  1.718150
      ESP Fit Center  199 is at   0.492494 -0.017313  1.718150
      ESP Fit Center  200 is at   0.697339 -0.372115  1.718150
      ESP Fit Center  201 is at   1.107029 -0.372115  1.718150
      ESP Fit Center  202 is at   0.098549 -0.017313  1.598648
      ESP Fit Center  203 is at  -0.582740 -0.017313 -1.826423
      ESP Fit Center  204 is at  -0.244648  0.197067 -2.087585
      ESP Fit Center  205 is at  -0.244648 -0.231693 -2.087585
      ESP Fit Center  206 is at   1.304002  0.678655 -2.281646
      ESP Fit Center  207 is at   0.902184  0.786322 -2.281646
      ESP Fit Center  208 is at   0.500366  0.678655 -2.281646
      ESP Fit Center  209 is at   0.206215  0.384504 -2.281646
      ESP Fit Center  210 is at   0.098549 -0.017313 -2.281646
      ESP Fit Center  211 is at   0.206215 -0.419131 -2.281646
      ESP Fit Center  212 is at   0.500366 -0.713282 -2.281646
      ESP Fit Center  213 is at   0.902184 -0.820948 -2.281646
      ESP Fit Center  214 is at   1.304002 -0.713282 -2.281646
      ESP Fit Center  215 is at   1.311874 -0.017313 -2.401148
      ESP Fit Center  216 is at   1.107029  0.337488 -2.401148
      ESP Fit Center  217 is at   0.697339  0.337488 -2.401148
      ESP Fit Center  218 is at   0.492494 -0.017313 -2.401148
      ESP Fit Center  219 is at   0.697339 -0.372115 -2.401148
      ESP Fit Center  220 is at   1.107029 -0.372115 -2.401148
      ESP Fit Center  221 is at   0.902184 -0.017313 -2.441499
      ESP Fit Center  222 is at   0.204847  1.184339  1.857762
      ESP Fit Center  223 is at   0.614537  1.184339  1.817411
      ESP Fit Center  224 is at   0.409692  1.539141  1.817411
      ESP Fit Center  225 is at   0.000002  1.539141  1.817411
      ESP Fit Center  226 is at   0.000002  0.829537  1.817411
      ESP Fit Center  227 is at   0.409692  0.829537  1.817411
      ESP Fit Center  228 is at   1.008482  1.184339  1.697909
      ESP Fit Center  229 is at   0.900816  1.586156  1.697909
      ESP Fit Center  230 is at   0.606665  1.880307  1.697909
      ESP Fit Center  231 is at   0.204847  1.987974  1.697909
      ESP Fit Center  232 is at  -0.196971  0.488370  1.697909
      ESP Fit Center  233 is at   0.204847  0.380704  1.697909
      ESP Fit Center  234 is at   0.606665  0.488370  1.697909
      ESP Fit Center  235 is at   0.900816  0.782521  1.697909
      ESP Fit Center  236 is at   1.292760  1.605799  1.503848
      ESP Fit Center  237 is at   1.067047  1.970338  1.503848
      ESP Fit Center  238 is at   0.724889  2.228724  1.503848
      ESP Fit Center  239 is at   0.312496  2.346059  1.503848
      ESP Fit Center  240 is at  -0.114435  2.306498  1.503848
      ESP Fit Center  241 is at  -0.114435  0.062179  1.503848
      ESP Fit Center  242 is at   1.454045  1.987150  1.242686
      ESP Fit Center  243 is at   0.416174  2.654149  1.242686
      ESP Fit Center  244 is at  -0.006480  2.654149  1.242686
      ESP Fit Center  245 is at  -0.513275  2.986690 -1.045873
      ESP Fit Center  246 is at  -0.414324  2.816958 -1.408936
      ESP Fit Center  247 is at  -0.412013  2.535073 -1.727162
      ESP Fit Center  248 is at   1.292760  1.605799 -1.988324
      ESP Fit Center  249 is at   1.067047  1.970338 -1.988324
      ESP Fit Center  250 is at   0.312496  2.346059 -1.988324
      ESP Fit Center  251 is at  -0.114435  2.306498 -1.988324
      ESP Fit Center  252 is at  -0.498245  2.115384 -1.988324
      ESP Fit Center  253 is at  -0.498245  0.253294 -1.988324
      ESP Fit Center  254 is at   1.008482  1.184339 -2.182385
      ESP Fit Center  255 is at   0.900816  1.586156 -2.182385
      ESP Fit Center  256 is at   0.606665  1.880307 -2.182385
      ESP Fit Center  257 is at   0.204847  1.987974 -2.182385
      ESP Fit Center  258 is at  -0.196971  1.880307 -2.182385
      ESP Fit Center  259 is at  -0.491121  1.586156 -2.182385
      ESP Fit Center  260 is at  -0.598788  1.184339 -2.182385
      ESP Fit Center  261 is at  -0.491121  0.782521 -2.182385
      ESP Fit Center  262 is at  -0.196971  0.488370 -2.182385
      ESP Fit Center  263 is at   0.614537  1.184339 -2.301887
      ESP Fit Center  264 is at   0.409692  1.539141 -2.301887
      ESP Fit Center  265 is at   0.000002  1.539141 -2.301887
      ESP Fit Center  266 is at  -0.204843  1.184339 -2.301887
      ESP Fit Center  267 is at   0.000002  0.829537 -2.301887
      ESP Fit Center  268 is at   0.409692  0.829537 -2.301887
      ESP Fit Center  269 is at   0.204847  1.184339 -2.342238
      ESP Fit Center  270 is at   0.954902  2.491960  1.290678
      ESP Fit Center  271 is at   1.577494  2.115398  1.122846
      ESP Fit Center  272 is at   1.464955  2.535398  1.122846
      ESP Fit Center  273 is at   1.157494  2.842859  1.122846
      ESP Fit Center  274 is at   0.737494  2.955398  1.122846
      ESP Fit Center  275 is at   0.317494  2.842859  1.122846
      ESP Fit Center  276 is at   1.845215  2.544531  0.855862
      ESP Fit Center  277 is at   1.615392  2.915707  0.855862
      ESP Fit Center  278 is at   1.267004  3.178798  0.855862
      ESP Fit Center  279 is at   0.847103  3.298270  0.855862
      ESP Fit Center  280 is at   0.412399  3.257988  0.855862
      ESP Fit Center  281 is at   0.021601  3.063394  0.855862
      ESP Fit Center  282 is at   2.127779  2.544244  0.507923
      ESP Fit Center  283 is at   1.939608  2.934985  0.507923
      ESP Fit Center  284 is at   1.644624  3.252902  0.507923
      ESP Fit Center  285 is at   1.269037  3.469747  0.507923
      ESP Fit Center  286 is at   0.846221  3.566252  0.507923
      ESP Fit Center  287 is at   0.413743  3.533843  0.507923
      ESP Fit Center  288 is at   0.010033  3.375398  0.507923
      ESP Fit Center  289 is at  -0.329040  3.104997  0.507923
      ESP Fit Center  290 is at   2.360249  2.115398  0.102739
      ESP Fit Center  291 is at   2.304955  2.535398  0.102739
      ESP Fit Center  292 is at   2.142841  2.926776  0.102739
      ESP Fit Center  293 is at   1.884955  3.262859  0.102739
      ESP Fit Center  294 is at   1.548872  3.520745  0.102739
      ESP Fit Center  295 is at   1.157494  3.682859  0.102739
      ESP Fit Center  296 is at   0.737494  3.738153  0.102739
      ESP Fit Center  297 is at   0.317494  3.682859  0.102739
      ESP Fit Center  298 is at  -0.073884  3.520745  0.102739
      ESP Fit Center  299 is at  -0.409967  3.262859  0.102739
      ESP Fit Center  300 is at   2.364714  2.533197 -0.332077
      ESP Fit Center  301 is at   2.209689  2.924744 -0.332077
      ESP Fit Center  302 is at   1.962161  3.265437 -0.332077
      ESP Fit Center  303 is at   1.637683  3.533869 -0.332077
      ESP Fit Center  304 is at   1.256643  3.713173 -0.332077
      ESP Fit Center  305 is at   0.842982  3.792083 -0.332077
      ESP Fit Center  306 is at   0.422693  3.765640 -0.332077
      ESP Fit Center  307 is at   0.022185  3.635507 -0.332077
      ESP Fit Center  308 is at  -0.333378  3.409860 -0.332077
      ESP Fit Center  309 is at   2.304955  2.535398 -0.766893
      ESP Fit Center  310 is at   2.142841  2.926776 -0.766893
      ESP Fit Center  311 is at   1.884955  3.262859 -0.766893
      ESP Fit Center  312 is at   1.548872  3.520745 -0.766893
      ESP Fit Center  313 is at   1.157494  3.682859 -0.766893
      ESP Fit Center  314 is at   0.737494  3.738153 -0.766893
      ESP Fit Center  315 is at   0.317494  3.682859 -0.766893
      ESP Fit Center  316 is at  -0.073884  3.520745 -0.766893
      ESP Fit Center  317 is at  -0.409967  3.262859 -0.766893
      ESP Fit Center  318 is at   2.127779  2.544244 -1.172077
      ESP Fit Center  319 is at   1.939608  2.934985 -1.172077
      ESP Fit Center  320 is at   1.644624  3.252902 -1.172077
      ESP Fit Center  321 is at   1.269037  3.469747 -1.172077
      ESP Fit Center  322 is at   0.846221  3.566252 -1.172077
      ESP Fit Center  323 is at   0.413743  3.533843 -1.172077
      ESP Fit Center  324 is at   0.010033  3.375398 -1.172077
      ESP Fit Center  325 is at  -0.329040  3.104997 -1.172077
      ESP Fit Center  326 is at   1.845215  2.544531 -1.520016
      ESP Fit Center  327 is at   1.615392  2.915707 -1.520016
      ESP Fit Center  328 is at   1.267004  3.178798 -1.520016
      ESP Fit Center  329 is at   0.847103  3.298270 -1.520016
      ESP Fit Center  330 is at   0.412399  3.257988 -1.520016
      ESP Fit Center  331 is at   0.021601  3.063394 -1.520016
      ESP Fit Center  332 is at   1.577494  2.115398 -1.787000
      ESP Fit Center  333 is at   1.464955  2.535398 -1.787000
      ESP Fit Center  334 is at   1.157494  2.842859 -1.787000
      ESP Fit Center  335 is at   0.737494  2.955398 -1.787000
      ESP Fit Center  336 is at   0.317494  2.842859 -1.787000
      ESP Fit Center  337 is at   1.172310  2.115398 -1.954832
      ESP Fit Center  338 is at   0.954902  2.491960 -1.954832
      ESP Fit Center  339 is at   0.520086  2.491960 -1.954832
      ESP Fit Center  340 is at  -1.163258  1.214883  2.065361
      ESP Fit Center  341 is at  -0.753568  1.214883  2.025010
      ESP Fit Center  342 is at  -0.958413  1.569685  2.025010
      ESP Fit Center  343 is at  -1.368103  1.569685  2.025010
      ESP Fit Center  344 is at  -1.572948  1.214883  2.025010
      ESP Fit Center  345 is at  -1.368103  0.860081  2.025010
      ESP Fit Center  346 is at  -0.958413  0.860081  2.025010
      ESP Fit Center  347 is at  -0.359623  1.214883  1.905508
      ESP Fit Center  348 is at  -0.467289  1.616701  1.905508
      ESP Fit Center  349 is at  -0.761440  1.910851  1.905508
      ESP Fit Center  350 is at  -1.163258  2.018518  1.905508
      ESP Fit Center  351 is at  -1.565076  1.910851  1.905508
      ESP Fit Center  352 is at  -1.859226  1.616701  1.905508
      ESP Fit Center  353 is at  -1.966893  1.214883  1.905508
      ESP Fit Center  354 is at  -0.761440  0.518914  1.905508
      ESP Fit Center  355 is at  -0.467289  0.813065  1.905508
      ESP Fit Center  356 is at  -0.301058  2.000882  1.711447
      ESP Fit Center  357 is at  -0.643216  2.259268  1.711447
      ESP Fit Center  358 is at  -1.055609  2.376603  1.711447
      ESP Fit Center  359 is at  -1.482540  2.337042  1.711447
      ESP Fit Center  360 is at  -1.866350  2.145928  1.711447
      ESP Fit Center  361 is at  -2.155204  1.829070  1.711447
      ESP Fit Center  362 is at  -2.310090  1.429263  1.711447
      ESP Fit Center  363 is at  -0.301058  0.428884  1.711447
      ESP Fit Center  364 is at  -0.546398  2.565618  1.450285
      ESP Fit Center  365 is at  -0.951931  2.684693  1.450285
      ESP Fit Center  366 is at  -2.588032  1.633234  1.450285
      ESP Fit Center  367 is at  -0.544087  2.847502  1.132058
      ESP Fit Center  368 is at  -2.858606  1.632749 -1.201337
      ESP Fit Center  369 is at  -0.951931  2.684693 -1.519563
      ESP Fit Center  370 is at  -2.412456  2.017694 -1.519563
      ESP Fit Center  371 is at  -2.588032  1.633234 -1.519563
      ESP Fit Center  372 is at  -2.648182  1.214883 -1.519563
      ESP Fit Center  373 is at  -1.055609  2.376603 -1.780725
      ESP Fit Center  374 is at  -1.482540  2.337042 -1.780725
      ESP Fit Center  375 is at  -1.866350  2.145928 -1.780725
      ESP Fit Center  376 is at  -2.155204  1.829070 -1.780725
      ESP Fit Center  377 is at  -2.310090  1.429263 -1.780725
      ESP Fit Center  378 is at  -2.310090  1.000503 -1.780725
      ESP Fit Center  379 is at  -0.761440  1.910851 -1.974786
      ESP Fit Center  380 is at  -1.163258  2.018518 -1.974786
      ESP Fit Center  381 is at  -1.565076  1.910851 -1.974786
      ESP Fit Center  382 is at  -1.859226  1.616701 -1.974786
      ESP Fit Center  383 is at  -1.966893  1.214883 -1.974786
      ESP Fit Center  384 is at  -1.859226  0.813065 -1.974786
      ESP Fit Center  385 is at  -1.565076  0.518914 -1.974786
      ESP Fit Center  386 is at  -1.163258  0.411248 -1.974786
      ESP Fit Center  387 is at  -0.958413  1.569685 -2.094288
      ESP Fit Center  388 is at  -1.368103  1.569685 -2.094288
      ESP Fit Center  389 is at  -1.572948  1.214883 -2.094288
      ESP Fit Center  390 is at  -1.368103  0.860081 -2.094288
      ESP Fit Center  391 is at  -0.958413  0.860081 -2.094288
      ESP Fit Center  392 is at  -1.163258  1.214883 -2.134639
      ESP Fit Center  393 is at  -1.472833  2.525755  1.659866
      ESP Fit Center  394 is at  -1.907649  2.525755  1.659866
      ESP Fit Center  395 is at  -2.125057  2.149193  1.659866
      ESP Fit Center  396 is at  -1.270241  2.876654  1.492034
      ESP Fit Center  397 is at  -1.690241  2.989193  1.492034
      ESP Fit Center  398 is at  -2.110241  2.876654  1.492034
      ESP Fit Center  399 is at  -2.417702  2.569193  1.492034
      ESP Fit Center  400 is at  -2.530241  2.149193  1.492034
      ESP Fit Center  401 is at  -0.812343  2.949503  1.225050
      ESP Fit Center  402 is at  -1.160731  3.212593  1.225050
      ESP Fit Center  403 is at  -1.580632  3.332065  1.225050
      ESP Fit Center  404 is at  -2.015336  3.291784  1.225050
      ESP Fit Center  405 is at  -2.406134  3.097189  1.225050
      ESP Fit Center  406 is at  -2.700247  2.774562  1.225050
      ESP Fit Center  407 is at  -2.857953  2.367476  1.225050
      ESP Fit Center  408 is at  -2.857953  1.930910  1.225050
      ESP Fit Center  409 is at  -0.783111  3.286697  0.877111
      ESP Fit Center  410 is at  -1.158698  3.503542  0.877111
      ESP Fit Center  411 is at  -1.581514  3.600047  0.877111
      ESP Fit Center  412 is at  -2.013992  3.567638  0.877111
      ESP Fit Center  413 is at  -2.417702  3.409193  0.877111
      ESP Fit Center  414 is at  -2.756775  3.138792  0.877111
      ESP Fit Center  415 is at  -3.001081  2.780460  0.877111
      ESP Fit Center  416 is at  -3.128913  2.366038  0.877111
      ESP Fit Center  417 is at  -0.542780  3.296654  0.471927
      ESP Fit Center  418 is at  -0.878863  3.554540  0.471927
      ESP Fit Center  419 is at  -1.270241  3.716654  0.471927
      ESP Fit Center  420 is at  -1.690241  3.771948  0.471927
      ESP Fit Center  421 is at  -2.110241  3.716654  0.471927
      ESP Fit Center  422 is at  -2.501619  3.554540  0.471927
      ESP Fit Center  423 is at  -2.837702  3.296654  0.471927
      ESP Fit Center  424 is at  -3.095588  2.960571  0.471927
      ESP Fit Center  425 is at  -3.257702  2.569193  0.471927
      ESP Fit Center  426 is at  -3.312996  2.149193  0.471927
      ESP Fit Center  427 is at  -0.465574  3.299232  0.037111
      ESP Fit Center  428 is at  -0.790052  3.567664  0.037111
      ESP Fit Center  429 is at  -1.171092  3.746968  0.037111
      ESP Fit Center  430 is at  -1.584753  3.825878  0.037111
      ESP Fit Center  431 is at  -2.005042  3.799436  0.037111
      ESP Fit Center  432 is at  -2.405550  3.669302  0.037111
      ESP Fit Center  433 is at  -2.761113  3.443655  0.037111
      ESP Fit Center  434 is at  -3.049389  3.136672  0.037111
      ESP Fit Center  435 is at  -3.252265  2.767642  0.037111
      ESP Fit Center  436 is at  -3.356994  2.359753  0.037111
      ESP Fit Center  437 is at  -0.542780  3.296654 -0.397705
      ESP Fit Center  438 is at  -0.878863  3.554540 -0.397705
      ESP Fit Center  439 is at  -1.270241  3.716654 -0.397705
      ESP Fit Center  440 is at  -1.690241  3.771948 -0.397705
      ESP Fit Center  441 is at  -2.110241  3.716654 -0.397705
      ESP Fit Center  442 is at  -2.501619  3.554540 -0.397705
      ESP Fit Center  443 is at  -2.837702  3.296654 -0.397705
      ESP Fit Center  444 is at  -3.095588  2.960571 -0.397705
      ESP Fit Center  445 is at  -3.257702  2.569193 -0.397705
      ESP Fit Center  446 is at  -3.312996  2.149193 -0.397705
      ESP Fit Center  447 is at  -0.783111  3.286697 -0.802889
      ESP Fit Center  448 is at  -1.158698  3.503542 -0.802889
      ESP Fit Center  449 is at  -1.581514  3.600047 -0.802889
      ESP Fit Center  450 is at  -2.013992  3.567638 -0.802889
      ESP Fit Center  451 is at  -2.417702  3.409193 -0.802889
      ESP Fit Center  452 is at  -2.756775  3.138792 -0.802889
      ESP Fit Center  453 is at  -3.001081  2.780460 -0.802889
      ESP Fit Center  454 is at  -3.128913  2.366038 -0.802889
      ESP Fit Center  455 is at  -3.128913  1.932348 -0.802889
      ESP Fit Center  456 is at  -1.160731  3.212593 -1.150828
      ESP Fit Center  457 is at  -1.580632  3.332065 -1.150828
      ESP Fit Center  458 is at  -2.015336  3.291784 -1.150828
      ESP Fit Center  459 is at  -2.406134  3.097189 -1.150828
      ESP Fit Center  460 is at  -2.700247  2.774562 -1.150828
      ESP Fit Center  461 is at  -2.857953  2.367476 -1.150828
      ESP Fit Center  462 is at  -2.857953  1.930910 -1.150828
      ESP Fit Center  463 is at  -1.270241  2.876654 -1.417812
      ESP Fit Center  464 is at  -1.690241  2.989193 -1.417812
      ESP Fit Center  465 is at  -2.110241  2.876654 -1.417812
      ESP Fit Center  466 is at  -2.417702  2.569193 -1.417812
      ESP Fit Center  467 is at  -2.530241  2.149193 -1.417812
      ESP Fit Center  468 is at  -1.907649  2.525755 -1.585644
      ESP Fit Center  469 is at  -1.866063  0.024584  2.178421
      ESP Fit Center  470 is at  -1.456373  0.024584  2.138070
      ESP Fit Center  471 is at  -1.661218  0.379386  2.138070
      ESP Fit Center  472 is at  -2.070908  0.379386  2.138070
      ESP Fit Center  473 is at  -2.275753  0.024584  2.138070
      ESP Fit Center  474 is at  -2.070908 -0.330218  2.138070
      ESP Fit Center  475 is at  -1.661218 -0.330218  2.138070
      ESP Fit Center  476 is at  -1.062428  0.024584  2.018568
      ESP Fit Center  477 is at  -1.170095  0.426402  2.018568
      ESP Fit Center  478 is at  -1.464245  0.720552  2.018568
      ESP Fit Center  479 is at  -1.866063  0.828219  2.018568
      ESP Fit Center  480 is at  -2.267881  0.720552  2.018568
      ESP Fit Center  481 is at  -2.267881 -0.671385  2.018568
      ESP Fit Center  482 is at  -1.866063 -0.779051  2.018568
      ESP Fit Center  483 is at  -1.464245 -0.671385  2.018568
      ESP Fit Center  484 is at  -1.170095 -0.377234  2.018568
      ESP Fit Center  485 is at  -0.699366  0.024584  1.824507
      ESP Fit Center  486 is at  -2.185345  1.146744  1.824507
      ESP Fit Center  487 is at  -0.381139  0.024584  1.563345
      ESP Fit Center  488 is at  -2.838482  1.146815 -1.406503
      ESP Fit Center  489 is at  -2.838482 -1.097647 -1.406503
      ESP Fit Center  490 is at  -2.569155  0.955629 -1.667665
      ESP Fit Center  491 is at  -2.858009  0.638771 -1.667665
      ESP Fit Center  492 is at  -3.012895  0.238964 -1.667665
      ESP Fit Center  493 is at  -3.012895 -0.189796 -1.667665
      ESP Fit Center  494 is at  -2.858009 -0.589603 -1.667665
      ESP Fit Center  495 is at  -2.569155 -0.906461 -1.667665
      ESP Fit Center  496 is at  -1.062428  0.024584 -1.861726
      ESP Fit Center  497 is at  -2.267881  0.720552 -1.861726
      ESP Fit Center  498 is at  -2.562032  0.426402 -1.861726
      ESP Fit Center  499 is at  -2.669698  0.024584 -1.861726
      ESP Fit Center  500 is at  -2.562032 -0.377234 -1.861726
      ESP Fit Center  501 is at  -2.267881 -0.671385 -1.861726
      ESP Fit Center  502 is at  -1.456373  0.024584 -1.981228
      ESP Fit Center  503 is at  -1.661218  0.379386 -1.981228
      ESP Fit Center  504 is at  -2.070908  0.379386 -1.981228
      ESP Fit Center  505 is at  -2.275753  0.024584 -1.981228
      ESP Fit Center  506 is at  -2.070908 -0.330218 -1.981228
      ESP Fit Center  507 is at  -1.661218 -0.330218 -1.981228
      ESP Fit Center  508 is at  -1.866063  0.024584 -2.021579
      ESP Fit Center  509 is at  -3.212587  0.096944  2.241626
      ESP Fit Center  510 is at  -2.805080  0.096944  2.198795
      ESP Fit Center  511 is at  -3.008834  0.449855  2.198795
      ESP Fit Center  512 is at  -3.416340  0.449855  2.198795
      ESP Fit Center  513 is at  -3.620094  0.096944  2.198795
      ESP Fit Center  514 is at  -3.416340 -0.255967  2.198795
      ESP Fit Center  515 is at  -3.008834 -0.255967  2.198795
      ESP Fit Center  516 is at  -2.522188  0.495546  2.072175
      ESP Fit Center  517 is at  -2.813985  0.787343  2.072175
      ESP Fit Center  518 is at  -3.212587  0.894148  2.072175
      ESP Fit Center  519 is at  -3.611189  0.787343  2.072175
      ESP Fit Center  520 is at  -3.902986  0.495546  2.072175
      ESP Fit Center  521 is at  -4.009791  0.096944  2.072175
      ESP Fit Center  522 is at  -3.902986 -0.301658  2.072175
      ESP Fit Center  523 is at  -3.611189 -0.593455  2.072175
      ESP Fit Center  524 is at  -3.212587 -0.700260  2.072175
      ESP Fit Center  525 is at  -2.813985 -0.593455  2.072175
      ESP Fit Center  526 is at  -2.522188 -0.301658  2.072175
      ESP Fit Center  527 is at  -2.699070  1.128225  1.867299
      ESP Fit Center  528 is at  -3.106288  1.244089  1.867299
      ESP Fit Center  529 is at  -3.527863  1.205024  1.867299
      ESP Fit Center  530 is at  -3.906858  1.016307  1.867299
      ESP Fit Center  531 is at  -4.192087  0.703425  1.867299
      ESP Fit Center  532 is at  -4.345030  0.308634  1.867299
      ESP Fit Center  533 is at  -4.345030 -0.114746  1.867299
      ESP Fit Center  534 is at  -2.699070 -0.934337  1.867299
      ESP Fit Center  535 is at  -2.607509  1.421881  1.593122
      ESP Fit Center  536 is at  -3.005296  1.538682  1.593122
      ESP Fit Center  537 is at  -3.419878  1.538682  1.593122
      ESP Fit Center  538 is at  -3.817666  1.421881  1.593122
      ESP Fit Center  539 is at  -4.166434  1.197742  1.593122
      ESP Fit Center  540 is at  -4.437927  0.884422  1.593122
      ESP Fit Center  541 is at  -4.610150  0.507305  1.593122
      ESP Fit Center  542 is at  -4.669151  0.096944  1.593122
      ESP Fit Center  543 is at  -4.610150 -0.313417  1.593122
      ESP Fit Center  544 is at  -3.106006  1.791004  1.261626
      ESP Fit Center  545 is at  -3.530650  1.764288  1.261626
      ESP Fit Center  546 is at  -3.935309  1.632806  1.261626
      ESP Fit Center  547 is at  -4.294557  1.404821  1.261626
      ESP Fit Center  548 is at  -4.585820  1.094656  1.261626
      ESP Fit Center  549 is at  -4.790799  0.721802  1.261626
      ESP Fit Center  550 is at  -4.896612  0.309686  1.261626
      ESP Fit Center  551 is at  -4.896612 -0.115798  1.261626
      ESP Fit Center  552 is at  -3.212587  1.961015  0.887299
      ESP Fit Center  553 is at  -3.627382  1.914279  0.887299
      ESP Fit Center  554 is at  -4.021377  1.776414  0.887299
      ESP Fit Center  555 is at  -4.374816  1.554333  0.887299
      ESP Fit Center  556 is at  -4.669976  1.259173  0.887299
      ESP Fit Center  557 is at  -4.892057  0.905734  0.887299
      ESP Fit Center  558 is at  -5.029922  0.511739  0.887299
      ESP Fit Center  559 is at  -5.076658  0.096944  0.887299
      ESP Fit Center  560 is at  -3.527943  2.020528  0.486502
      ESP Fit Center  561 is at  -3.934084  1.907764  0.486502
      ESP Fit Center  562 is at  -4.306488  1.710327  0.486502
      ESP Fit Center  563 is at  -4.627743  1.437451  0.486502
      ESP Fit Center  564 is at  -4.882827  1.101894  0.486502
      ESP Fit Center  565 is at  -5.059812  0.719347  0.486502
      ESP Fit Center  566 is at  -5.150423  0.307696  0.486502
      ESP Fit Center  567 is at  -5.150423 -0.113808  0.486502
      ESP Fit Center  568 is at  -3.527943  2.020528  0.076750
      ESP Fit Center  569 is at  -3.934084  1.907764  0.076750
      ESP Fit Center  570 is at  -4.306488  1.710327  0.076750
      ESP Fit Center  571 is at  -4.627743  1.437451  0.076750
      ESP Fit Center  572 is at  -4.882827  1.101894  0.076750
      ESP Fit Center  573 is at  -5.059812  0.719347  0.076750
      ESP Fit Center  574 is at  -5.150423  0.307696  0.076750
      ESP Fit Center  575 is at  -5.150423 -0.113808  0.076750
      ESP Fit Center  576 is at  -3.627382  1.914279 -0.324047
      ESP Fit Center  577 is at  -4.021377  1.776414 -0.324047
      ESP Fit Center  578 is at  -4.374816  1.554333 -0.324047
      ESP Fit Center  579 is at  -4.669976  1.259173 -0.324047
      ESP Fit Center  580 is at  -4.892057  0.905734 -0.324047
      ESP Fit Center  581 is at  -5.029922  0.511739 -0.324047
      ESP Fit Center  582 is at  -5.076658  0.096944 -0.324047
      ESP Fit Center  583 is at  -3.530650  1.764288 -0.698374
      ESP Fit Center  584 is at  -3.935309  1.632806 -0.698374
      ESP Fit Center  585 is at  -4.294557  1.404821 -0.698374
      ESP Fit Center  586 is at  -4.585820  1.094656 -0.698374
      ESP Fit Center  587 is at  -4.790799  0.721802 -0.698374
      ESP Fit Center  588 is at  -4.896612  0.309686 -0.698374
      ESP Fit Center  589 is at  -4.896612 -0.115798 -0.698374
      ESP Fit Center  590 is at  -3.005296  1.538682 -1.029870
      ESP Fit Center  591 is at  -3.419878  1.538682 -1.029870
      ESP Fit Center  592 is at  -3.817666  1.421881 -1.029870
      ESP Fit Center  593 is at  -4.166434  1.197742 -1.029870
      ESP Fit Center  594 is at  -4.437927  0.884422 -1.029870
      ESP Fit Center  595 is at  -4.610150  0.507305 -1.029870
      ESP Fit Center  596 is at  -4.669151  0.096944 -1.029870
      ESP Fit Center  597 is at  -4.610150 -0.313417 -1.029870
      ESP Fit Center  598 is at  -3.106288  1.244089 -1.304047
      ESP Fit Center  599 is at  -3.527863  1.205024 -1.304047
      ESP Fit Center  600 is at  -3.906858  1.016307 -1.304047
      ESP Fit Center  601 is at  -4.192087  0.703425 -1.304047
      ESP Fit Center  602 is at  -4.345030  0.308634 -1.304047
      ESP Fit Center  603 is at  -4.345030 -0.114746 -1.304047
      ESP Fit Center  604 is at  -4.192087 -0.509537 -1.304047
      ESP Fit Center  605 is at  -3.106288 -1.050201 -1.304047
      ESP Fit Center  606 is at  -3.212587  0.894148 -1.508923
      ESP Fit Center  607 is at  -3.611189  0.787343 -1.508923
      ESP Fit Center  608 is at  -3.902986  0.495546 -1.508923
      ESP Fit Center  609 is at  -4.009791  0.096944 -1.508923
      ESP Fit Center  610 is at  -3.902986 -0.301658 -1.508923
      ESP Fit Center  611 is at  -3.611189 -0.593455 -1.508923
      ESP Fit Center  612 is at  -3.212587 -0.700260 -1.508923
      ESP Fit Center  613 is at  -3.008834  0.449855 -1.635543
      ESP Fit Center  614 is at  -3.416340  0.449855 -1.635543
      ESP Fit Center  615 is at  -3.620094  0.096944 -1.635543
      ESP Fit Center  616 is at  -3.416340 -0.255967 -1.635543
      ESP Fit Center  617 is at  -3.212587  0.096944 -1.678374
      ESP Fit Center  618 is at  -3.582865 -0.777156  2.023150
      ESP Fit Center  619 is at  -4.017681 -0.777156  1.965905
      ESP Fit Center  620 is at  -3.800273 -1.153718  1.965905
      ESP Fit Center  621 is at  -3.365457 -1.153718  1.965905
      ESP Fit Center  622 is at  -4.422865 -0.777156  1.798073
      ESP Fit Center  623 is at  -4.310326 -1.197156  1.798073
      ESP Fit Center  624 is at  -4.002865 -1.504617  1.798073
      ESP Fit Center  625 is at  -3.582865 -1.617156  1.798073
      ESP Fit Center  626 is at  -3.162865 -1.504617  1.798073
      ESP Fit Center  627 is at  -2.855404 -1.197156  1.798073
      ESP Fit Center  628 is at  -4.750578 -0.558873  1.531089
      ESP Fit Center  629 is at  -4.750578 -0.995439  1.531089
      ESP Fit Center  630 is at  -4.592871 -1.402525  1.531089
      ESP Fit Center  631 is at  -4.298758 -1.725152  1.531089
      ESP Fit Center  632 is at  -3.907960 -1.919747  1.531089
      ESP Fit Center  633 is at  -3.473256 -1.960028  1.531089
      ESP Fit Center  634 is at  -3.053355 -1.840556  1.531089
      ESP Fit Center  635 is at  -2.704967 -1.577466  1.531089
      ESP Fit Center  636 is at  -5.021537 -0.560311  1.183150
      ESP Fit Center  637 is at  -5.021537 -0.994001  1.183150
      ESP Fit Center  638 is at  -4.893705 -1.408423  1.183150
      ESP Fit Center  639 is at  -4.649399 -1.766755  1.183150
      ESP Fit Center  640 is at  -4.310326 -2.037156  1.183150
      ESP Fit Center  641 is at  -3.906616 -2.195601  1.183150
      ESP Fit Center  642 is at  -3.474139 -2.228010  1.183150
      ESP Fit Center  643 is at  -3.051322 -2.131505  1.183150
      ESP Fit Center  644 is at  -5.150326 -0.357156  0.777966
      ESP Fit Center  645 is at  -5.205620 -0.777156  0.777966
      ESP Fit Center  646 is at  -5.150326 -1.197156  0.777966
      ESP Fit Center  647 is at  -4.988212 -1.588534  0.777966
      ESP Fit Center  648 is at  -4.730326 -1.924617  0.777966
      ESP Fit Center  649 is at  -4.394243 -2.182503  0.777966
      ESP Fit Center  650 is at  -4.002865 -2.344617  0.777966
      ESP Fit Center  651 is at  -3.582865 -2.399911  0.777966
      ESP Fit Center  652 is at  -5.249618 -0.566596  0.343150
      ESP Fit Center  653 is at  -5.249618 -0.987716  0.343150
      ESP Fit Center  654 is at  -5.144890 -1.395605  0.343150
      ESP Fit Center  655 is at  -4.942014 -1.764635  0.343150
      ESP Fit Center  656 is at  -4.653737 -2.071618  0.343150
      ESP Fit Center  657 is at  -4.298174 -2.297265  0.343150
      ESP Fit Center  658 is at  -3.897666 -2.427399  0.343150
      ESP Fit Center  659 is at  -3.477377 -2.453841  0.343150
      ESP Fit Center  660 is at  -5.150326 -0.357156 -0.091666
      ESP Fit Center  661 is at  -5.205620 -0.777156 -0.091666
      ESP Fit Center  662 is at  -5.150326 -1.197156 -0.091666
      ESP Fit Center  663 is at  -4.988212 -1.588534 -0.091666
      ESP Fit Center  664 is at  -4.730326 -1.924617 -0.091666
      ESP Fit Center  665 is at  -4.394243 -2.182503 -0.091666
      ESP Fit Center  666 is at  -4.002865 -2.344617 -0.091666
      ESP Fit Center  667 is at  -3.582865 -2.399911 -0.091666
      ESP Fit Center  668 is at  -5.021537 -0.560311 -0.496850
      ESP Fit Center  669 is at  -5.021537 -0.994001 -0.496850
      ESP Fit Center  670 is at  -4.893705 -1.408423 -0.496850
      ESP Fit Center  671 is at  -4.649399 -1.766755 -0.496850
      ESP Fit Center  672 is at  -4.310326 -2.037156 -0.496850
      ESP Fit Center  673 is at  -3.906616 -2.195601 -0.496850
      ESP Fit Center  674 is at  -3.474139 -2.228010 -0.496850
      ESP Fit Center  675 is at  -4.750578 -0.558873 -0.844789
      ESP Fit Center  676 is at  -4.750578 -0.995439 -0.844789
      ESP Fit Center  677 is at  -4.592871 -1.402525 -0.844789
      ESP Fit Center  678 is at  -4.298758 -1.725152 -0.844789
      ESP Fit Center  679 is at  -3.907960 -1.919747 -0.844789
      ESP Fit Center  680 is at  -3.473256 -1.960028 -0.844789
      ESP Fit Center  681 is at  -4.422865 -0.777156 -1.111773
      ESP Fit Center  682 is at  -4.310326 -1.197156 -1.111773
      ESP Fit Center  683 is at  -4.002865 -1.504617 -1.111773
      ESP Fit Center  684 is at  -3.582865 -1.617156 -1.111773
      ESP Fit Center  685 is at  -3.162865 -1.504617 -1.111773
      ESP Fit Center  686 is at  -4.017681 -0.777156 -1.279605
      ESP Fit Center  687 is at  -3.800273 -1.153718 -1.279605
      ESP Fit Center  688 is at  -3.365457 -1.153718 -1.279605
[...]
 4896 Fit       0.020583
 4897 Fit       0.022624
 4898 Fit       0.023942
 4899 Fit       0.024502
 4900 Fit       0.024113
 4901 Fit       0.005072
 4902 Fit       0.010402
 4903 Fit       0.014830
 4904 Fit       0.018471
 4905 Fit       0.021423
 4906 Fit       0.023772
 4907 Fit       0.025593
 4908 Fit       0.026952
 4909 Fit       0.027888
 4910 Fit       0.005645
 4911 Fit       0.010971
 4912 Fit       0.015422
 4913 Fit       0.019124
 4914 Fit       0.022180
 4915 Fit       0.024688
 4916 Fit       0.026744
 4917 Fit       0.028454
 4918 Fit       0.029954
 4919 Fit       0.005908
 4920 Fit       0.011131
 4921 Fit       0.015528
 4922 Fit       0.019220
 4923 Fit       0.022313
 4924 Fit       0.024900
 4925 Fit       0.027083
 4926 Fit       0.028980
 4927 Fit       0.030759
 4928 Fit       0.008466
 4929 Fit       0.013231
 4930 Fit       0.017254
 4931 Fit       0.020646
 4932 Fit       0.023504
 4933 Fit       0.025926
 4934 Fit       0.028020
 4935 Fit       0.029934
 4936 Fit       0.031899
 4937 Fit       0.005147
 4938 Fit       0.010493
 4939 Fit       0.014989
 4940 Fit       0.018765
 4941 Fit       0.021934
 4942 Fit       0.024599
 4943 Fit       0.026874
 4944 Fit       0.028901
 4945 Fit       0.030901
 4946 Fit       0.004140
 4947 Fit       0.009714
 4948 Fit       0.014365
 4949 Fit       0.018235
 4950 Fit       0.021445
 4951 Fit       0.024112
 4952 Fit       0.026361
 4953 Fit       0.028356
 4954 Fit       0.030353
 4955 Fit       0.008561
 4956 Fit       0.013281
 4957 Fit       0.017168
 4958 Fit       0.020344
 4959 Fit       0.022925
 4960 Fit       0.025030
 4961 Fit       0.026800
 4962 Fit       0.007242
 4963 Fit       0.012178
 4964 Fit       0.016131
 4965 Fit       0.019227
 4966 Fit       0.021577
 4967 Fit       0.023273
 4968 Fit       0.005631
 4969 Fit       0.010648
 4970 Fit       0.014491
 4971 Fit       0.017256
 4972 Fit       0.018982
 4973 Fit       0.019588
 4974 Fit       0.006602
 4975 Fit       0.010832
 4976 Fit       0.013460
 4977 Fit       0.014365
 4978 Fit       0.008101
 4979 Fit      -0.013818
 4980 Fit      -0.012604
 4981 Fit      -0.015731
 4982 Fit      -0.016923
 4983 Fit      -0.011639
 4984 Fit      -0.010731
 4985 Fit      -0.014347
 4986 Fit      -0.017501
 4987 Fit      -0.019637
 4988 Fit      -0.007760
 4989 Fit      -0.007653
 4990 Fit      -0.008687
 4991 Fit      -0.023307
 4992 Fit      -0.004911
 4993 Fit      -0.004499
 4994 Fit      -0.004612
 4995 Fit      -0.005195
 4996 Fit      -0.001508
 4997 Fit      -0.001441
 4998 Fit      -0.001603
 4999 Fit      -0.001914
 5000 Fit       0.001774
 5001 Fit       0.001659
 5002 Fit       0.001490
 5003 Fit       0.001266
 5004 Fit       0.001044
 5005 Fit       0.005085
 5006 Fit       0.004704
 5007 Fit       0.004424
 5008 Fit       0.004157
 5009 Fit       0.003885
 5010 Fit       0.008170
 5011 Fit       0.011144
 5012 Fit       0.009457
 5013 Fit       0.006405
 5014 Fit       0.003132
 5015 Fit       0.004076
 5016 Fit      -0.001746
 5017 Fit      -0.000164
 5018 Fit       0.001069
 5019 Fit       0.002047
 5020 Fit       0.002786
 5021 Fit       0.003476
 5022 Fit      -0.004650
 5023 Fit      -0.002734
 5024 Fit      -0.001324
 5025 Fit      -0.000349
 5026 Fit       0.000204
 5027 Fit       0.000321
 5028 Fit      -0.020106
 5029 Fit      -0.008855
 5030 Fit      -0.006350
 5031 Fit      -0.004511
 5032 Fit      -0.003327
 5033 Fit      -0.002795
 5034 Fit      -0.002961
 5035 Fit      -0.003945
 5036 Fit      -0.008221
 5037 Fit      -0.017863
 5038 Fit      -0.016790
 5039 Fit      -0.014287
 5040 Fit      -0.011192
 5041 Fit      -0.008426
 5042 Fit      -0.006561
 5043 Fit      -0.005824
 5044 Fit      -0.006350
 5045 Fit      -0.010187
 5046 Fit      -0.013244
 5047 Fit      -0.014824
 5048 Fit      -0.013182
 5049 Fit      -0.010234
 5050 Fit      -0.008833
 5051 Fit      -0.011827
 5052 Fit       0.004784
 5053 Fit       0.004616
 5054 Fit       0.007303
 5055 Fit       0.007122
 5056 Fit       0.006857
 5057 Fit       0.006521
 5058 Fit       0.009814
 5059 Fit       0.009332
 5060 Fit       0.008971
 5061 Fit       0.008649
 5062 Fit       0.008319
 5063 Fit       0.007984
 5064 Fit       0.012562
 5065 Fit       0.011491
 5066 Fit       0.010820
 5067 Fit       0.010370
 5068 Fit       0.010022
 5069 Fit       0.009706
 5070 Fit       0.009386
 5071 Fit       0.009059
 5072 Fit       0.014768
 5073 Fit       0.013122
 5074 Fit       0.012150
 5075 Fit       0.011549
 5076 Fit       0.011143
 5077 Fit       0.010825
 5078 Fit       0.010535
 5079 Fit       0.010240
 5080 Fit       0.009924
 5081 Fit       0.014265
 5082 Fit       0.013066
 5083 Fit       0.012346
 5084 Fit       0.011891
 5085 Fit       0.011573
 5086 Fit       0.011318
 5087 Fit       0.011085
 5088 Fit       0.010856
 5089 Fit       0.010627
 5090 Fit       0.015272
 5091 Fit       0.013762
 5092 Fit       0.012870
 5093 Fit       0.012332
 5094 Fit       0.011990
 5095 Fit       0.011752
 5096 Fit       0.011565
 5097 Fit       0.011407
 5098 Fit       0.011282
 5099 Fit       0.011219
 5100 Fit       0.014712
 5101 Fit       0.013380
 5102 Fit       0.012593
 5103 Fit       0.012131
 5104 Fit       0.011855
 5105 Fit       0.011678
 5106 Fit       0.011554
 5107 Fit       0.011470
 5108 Fit       0.011450
 5109 Fit       0.011573
 5110 Fit       0.012465
 5111 Fit       0.011872
 5112 Fit       0.011531
 5113 Fit       0.011347
 5114 Fit       0.011248
 5115 Fit       0.011194
 5116 Fit       0.011178
 5117 Fit       0.011238
 5118 Fit       0.011488
 5119 Fit       0.010311
 5120 Fit       0.010309
 5121 Fit       0.010334
 5122 Fit       0.010377
 5123 Fit       0.010425
 5124 Fit       0.010483
 5125 Fit       0.010596
 5126 Fit       0.010882
 5127 Fit       0.007915
 5128 Fit       0.008492
 5129 Fit       0.008865
 5130 Fit       0.009122
 5131 Fit       0.009303
 5132 Fit       0.009455
 5133 Fit       0.009670
 5134 Fit       0.006209
 5135 Fit       0.007016
 5136 Fit       0.007516
 5137 Fit       0.007818
 5138 Fit       0.008010
 5139 Fit       0.004491
 5140 Fit       0.005399
 5141 Fit       0.005843
 5142 Fit       0.005946
 5143 Fit       0.003265
 5144 Fit      -0.010534
 5145 Fit      -0.012214
 5146 Fit      -0.014136
 5147 Fit      -0.012492
 5148 Fit      -0.008466
 5149 Fit      -0.006710
 5150 Fit      -0.008734
 5151 Fit      -0.013579
 5152 Fit      -0.016214
 5153 Fit      -0.017557
 5154 Fit      -0.005908
 5155 Fit      -0.003006
 5156 Fit      -0.002667
 5157 Fit      -0.004229
 5158 Fit      -0.006934
 5159 Fit      -0.010244
 5160 Fit      -0.019641
 5161 Fit       0.000926
 5162 Fit       0.002122
 5163 Fit       0.001561
 5164 Fit      -0.000056
 5165 Fit      -0.002313
 5166 Fit      -0.005017
 5167 Fit      -0.008082
 5168 Fit      -0.023227
 5169 Fit       0.007094
 5170 Fit       0.007468
 5171 Fit       0.006443
 5172 Fit       0.004697
 5173 Fit       0.002556
 5174 Fit       0.000168
 5175 Fit      -0.002440
 5176 Fit      -0.005318
 5177 Fit       0.014092
 5178 Fit       0.012826
 5179 Fit       0.008933
 5180 Fit       0.006745
 5181 Fit       0.004503
 5182 Fit       0.002230
 5183 Fit      -0.000122
 5184 Fit       0.007534
 5185 Fit       0.005342
 5186 Fit       0.003210
 5187 Fit       0.008382
 5188 Fit       0.006541
 5189 Fit       0.009978
 5190 Fit       0.011214
 5191 Fit       0.014097
 5192 Fit       0.008632
 5193 Fit       0.006310
 5194 Fit       0.007993
 5195 Fit       0.008504
 5196 Fit       0.008350
 5197 Fit       0.007812
 5198 Fit       0.007044
 5199 Fit       0.006170
 5200 Fit       0.005307
 5201 Fit      -0.001669
 5202 Fit       0.001420
 5203 Fit       0.003118
 5204 Fit       0.003799
 5205 Fit       0.003812
 5206 Fit       0.003393
 5207 Fit       0.002702
 5208 Fit       0.001843
 5209 Fit      -0.004963
 5210 Fit      -0.002204
 5211 Fit      -0.000720
 5212 Fit      -0.000231
 5213 Fit      -0.000445
 5214 Fit      -0.001156
 5215 Fit      -0.009289
 5216 Fit      -0.006324
 5217 Fit      -0.004593
 5218 Fit      -0.004014
 5219 Fit      -0.004354
 5220 Fit      -0.005449
 5221 Fit      -0.020302
 5222 Fit      -0.018213
 5223 Fit      -0.014886
 5224 Fit      -0.011301
 5225 Fit      -0.008667
 5226 Fit      -0.007620
 5227 Fit      -0.008121
 5228 Fit      -0.017546
 5229 Fit      -0.016268
 5230 Fit      -0.012964
 5231 Fit      -0.011059
 5232 Fit      -0.012298
 5233 Fit      -0.014352
 5234 Fit       0.010294
 5235 Fit       0.017570
 5236 Fit       0.015765
 5237 Fit       0.013647
 5238 Fit       0.011415
 5239 Fit       0.008963
 5240 Fit       0.022511
 5241 Fit       0.019555
 5242 Fit       0.017031
 5243 Fit       0.014836
 5244 Fit       0.012793
 5245 Fit       0.010726
 5246 Fit       0.024077
 5247 Fit       0.020768
 5248 Fit       0.018234
 5249 Fit       0.016167
 5250 Fit       0.014354
 5251 Fit       0.012647
 5252 Fit       0.010912
 5253 Fit       0.028435
 5254 Fit       0.024186
 5255 Fit       0.021169
 5256 Fit       0.018893
 5257 Fit       0.017067
 5258 Fit       0.015518
 5259 Fit       0.014146
 5260 Fit       0.012887
 5261 Fit       0.011676
 5262 Fit       0.031292
 5263 Fit       0.026258
 5264 Fit       0.022847
 5265 Fit       0.020385
 5266 Fit       0.018497
 5267 Fit       0.016976
 5268 Fit       0.015716
 5269 Fit       0.014680
 5270 Fit       0.013878
 5271 Fit       0.013350
 5272 Fit       0.027503
 5273 Fit       0.023903
 5274 Fit       0.021349
 5275 Fit       0.019433
 5276 Fit       0.017930
 5277 Fit       0.016727
 5278 Fit       0.015787
 5279 Fit       0.015142
 5280 Fit       0.014900
 5281 Fit       0.029627
 5282 Fit       0.025441
 5283 Fit       0.022541
 5284 Fit       0.020422
 5285 Fit       0.018800
 5286 Fit       0.017523
 5287 Fit       0.016523
 5288 Fit       0.015809
 5289 Fit       0.015462
 5290 Fit       0.015682
 5291 Fit       0.029764
 5292 Fit       0.025451
 5293 Fit       0.022469
 5294 Fit       0.020303
 5295 Fit       0.018659
 5296 Fit       0.017372
 5297 Fit       0.016370
 5298 Fit       0.015655
 5299 Fit       0.015315
 5300 Fit       0.015564
 5301 Fit       0.025901
 5302 Fit       0.022654
 5303 Fit       0.020297
 5304 Fit       0.018517
 5305 Fit       0.017125
 5306 Fit       0.016020
 5307 Fit       0.015176
 5308 Fit       0.014643
 5309 Fit       0.014576
 5310 Fit       0.024528
 5311 Fit       0.021754
 5312 Fit       0.019552
 5313 Fit       0.017813
 5314 Fit       0.016410
 5315 Fit       0.015252
 5316 Fit       0.014296
 5317 Fit       0.013555
 5318 Fit       0.013103
 5319 Fit       0.018742
 5320 Fit       0.017307
 5321 Fit       0.015926
 5322 Fit       0.014681
 5323 Fit       0.013560
 5324 Fit       0.012548
 5325 Fit       0.011649
 5326 Fit       0.013641
 5327 Fit       0.013128
 5328 Fit       0.012296
 5329 Fit       0.011325
 5330 Fit       0.010266
 5331 Fit       0.009114
 5332 Fit       0.009143
 5333 Fit       0.008701
 5334 Fit      -0.002802
 5335 Fit      -0.002291
 5336 Fit      -0.003309
 5337 Fit      -0.004006
 5338 Fit      -0.003540
 5339 Fit      -0.002227
 5340 Fit      -0.001694
 5341 Fit      -0.001948
 5342 Fit      -0.005403
 5343 Fit      -0.004578
 5344 Fit      -0.003065
 5345 Fit      -0.001611
 5346 Fit      -0.000787
 5347 Fit      -0.000701
 5348 Fit      -0.001172
 5349 Fit      -0.007057
 5350 Fit      -0.006018
 5351 Fit      -0.004319
 5352 Fit      -0.002474
 5353 Fit      -0.000966
 5354 Fit      -0.000035
 5355 Fit       0.000306
 5356 Fit       0.000169
 5357 Fit      -0.000299
 5358 Fit      -0.000964
 5359 Fit      -0.008765
 5360 Fit      -0.007053
 5361 Fit      -0.004818
 5362 Fit      -0.002580
 5363 Fit      -0.000757
 5364 Fit       0.000462
 5365 Fit       0.001087
 5366 Fit       0.001221
 5367 Fit       0.000988
 5368 Fit       0.000506
 5369 Fit      -0.000125
 5370 Fit      -0.000829
 5371 Fit      -0.011701
 5372 Fit      -0.009577
 5373 Fit      -0.006749
 5374 Fit      -0.003820
 5375 Fit      -0.001322
 5376 Fit       0.000476
 5377 Fit       0.001559
 5378 Fit       0.002045
 5379 Fit       0.002080
 5380 Fit       0.001795
 5381 Fit       0.001296
 5382 Fit       0.000670
 5383 Fit      -0.000014
 5384 Fit      -0.005734
 5385 Fit      -0.002340
 5386 Fit       0.000195
 5387 Fit       0.001823
 5388 Fit       0.002691
 5389 Fit       0.002996
 5390 Fit       0.002908
 5391 Fit       0.002554
 5392 Fit       0.002025
 5393 Fit       0.001396
 5394 Fit       0.000728
 5395 Fit       0.000409
 5396 Fit       0.002535
 5397 Fit       0.003613
 5398 Fit       0.003974
 5399 Fit       0.003878
 5400 Fit       0.003495
 5401 Fit       0.002935
 5402 Fit       0.002274
 5403 Fit       0.001573
 5404 Fit       0.000895
 5405 Fit       0.004864
 5406 Fit       0.005196
 5407 Fit       0.005010
 5408 Fit       0.004540
 5409 Fit       0.003911
 5410 Fit       0.003197
 5411 Fit       0.002452
 5412 Fit       0.001733
 5413 Fit       0.006978
 5414 Fit       0.006634
 5415 Fit       0.005985
 5416 Fit       0.005208
 5417 Fit       0.004382
 5418 Fit       0.003546
 5419 Fit       0.002740
 5420 Fit       0.007476
 5421 Fit       0.006324
 5422 Fit       0.005248
 5423 Fit       0.004245
 5424 Fit       0.008083
 5425 Fit       0.006595
 5426 Fit      -0.003924
 5427 Fit      -0.003271
 5428 Fit      -0.003039
 5429 Fit      -0.003773
 5430 Fit      -0.004837
 5431 Fit      -0.004834
 5432 Fit      -0.002807
 5433 Fit      -0.002350
 5434 Fit      -0.002212
 5435 Fit      -0.002600
 5436 Fit      -0.003604
 5437 Fit      -0.004979
 5438 Fit      -0.006093
 5439 Fit      -0.006334
 5440 Fit      -0.001993
 5441 Fit      -0.001620
 5442 Fit      -0.001461
 5443 Fit      -0.001643
 5444 Fit      -0.002279
 5445 Fit      -0.003422
 5446 Fit      -0.004974
 5447 Fit      -0.006603
 5448 Fit      -0.007808
 5449 Fit      -0.008176
 5450 Fit      -0.001741
 5451 Fit      -0.001302
 5452 Fit      -0.000955
 5453 Fit      -0.000781
 5454 Fit      -0.000878
 5455 Fit      -0.001350
 5456 Fit      -0.002292
 5457 Fit      -0.003754
 5458 Fit      -0.005664
 5459 Fit      -0.007746
 5460 Fit      -0.009527
 5461 Fit      -0.010522
 5462 Fit      -0.001078
 5463 Fit      -0.000659
 5464 Fit      -0.000323
 5465 Fit      -0.000143
 5466 Fit      -0.000209
 5467 Fit      -0.000618
 5468 Fit      -0.001482
 5469 Fit      -0.002913
 5470 Fit      -0.004966
 5471 Fit      -0.007540
 5472 Fit      -0.010271
 5473 Fit      -0.012557
 5474 Fit      -0.013827
 5475 Fit      -0.000479
 5476 Fit      -0.000075
 5477 Fit       0.000262
 5478 Fit       0.000463
 5479 Fit       0.000456
 5480 Fit       0.000149
 5481 Fit      -0.000572
 5482 Fit      -0.001854
 5483 Fit      -0.003853
 5484 Fit      -0.006654
 5485 Fit      -0.010123
 5486 Fit      -0.000251
 5487 Fit       0.000171
 5488 Fit       0.000585
 5489 Fit       0.000924
 5490 Fit       0.001120
 5491 Fit       0.001098
 5492 Fit       0.000752
 5493 Fit      -0.000075
 5494 Fit      -0.001613
 5495 Fit      -0.004154
 5496 Fit       0.000390
 5497 Fit       0.000838
 5498 Fit       0.001273
 5499 Fit       0.001637
 5500 Fit       0.001872
 5501 Fit       0.001906
 5502 Fit       0.001621
 5503 Fit       0.000808
 5504 Fit       0.001147
 5505 Fit       0.001650
 5506 Fit       0.002141
 5507 Fit       0.002579
 5508 Fit       0.002925
 5509 Fit       0.003110
 5510 Fit       0.002984
 5511 Fit       0.001663
 5512 Fit       0.002257
 5513 Fit       0.002895
 5514 Fit       0.003562
 5515 Fit       0.004268
 5516 Fit       0.003164
 5517 Fit       0.004034
 5518 Fit       0.005096
 5519 Fit       0.005609
 5520 Fit       0.000292
 5521 Fit       0.000087
 5522 Fit      -0.000286
 5523 Fit       0.000167
 5524 Fit       0.000313
 5525 Fit       0.001142
 5526 Fit       0.000954
 5527 Fit       0.000617
 5528 Fit       0.000163
 5529 Fit       0.000816
 5530 Fit       0.001051
 5531 Fit       0.001170
 5532 Fit       0.001921
 5533 Fit       0.001752
 5534 Fit       0.001455
 5535 Fit       0.001049
 5536 Fit       0.000572
 5537 Fit       0.001402
 5538 Fit       0.001667
 5539 Fit       0.001864
 5540 Fit       0.001956
 5541 Fit       0.002612
 5542 Fit       0.002448
 5543 Fit       0.002166
 5544 Fit       0.001780
 5545 Fit       0.001322
 5546 Fit       0.000840
 5547 Fit       0.001886
 5548 Fit       0.002151
 5549 Fit       0.002396
 5550 Fit       0.002573
 5551 Fit       0.002651
 5552 Fit       0.003199
 5553 Fit       0.003046
 5554 Fit       0.002787
 5555 Fit       0.002436
 5556 Fit       0.002017
 5557 Fit       0.001571
 5558 Fit       0.001155
 5559 Fit       0.002405
 5560 Fit       0.002601
 5561 Fit       0.002830
 5562 Fit       0.003037
 5563 Fit       0.003184
 5564 Fit       0.003243
 5565 Fit       0.003677
 5566 Fit       0.003532
 5567 Fit       0.003292
 5568 Fit       0.002972
 5569 Fit       0.002594
 5570 Fit       0.002196
 5571 Fit       0.001830
 5572 Fit       0.003079
 5573 Fit       0.003219
 5574 Fit       0.003398
 5575 Fit       0.003566
 5576 Fit       0.003684
 5577 Fit       0.003726
 5578 Fit       0.004044
 5579 Fit       0.003900
 5580 Fit       0.003669
 5581 Fit       0.003368
 5582 Fit       0.003024
 5583 Fit       0.002682
 5584 Fit       0.002402
 5585 Fit       0.003697
 5586 Fit       0.003735
 5587 Fit       0.003849
 5588 Fit       0.003976
 5589 Fit       0.004070
 5590 Fit       0.004099
 5591 Fit       0.004306
 5592 Fit       0.004163
 5593 Fit       0.003943
 5594 Fit       0.003668
 5595 Fit       0.003377
 5596 Fit       0.003128
 5597 Fit       0.003006
 5598 Fit       0.004359
 5599 Fit       0.004222
 5600 Fit       0.004231
 5601 Fit       0.004297
 5602 Fit       0.004357
 5603 Fit       0.004368
 5604 Fit       0.004475
 5605 Fit       0.004339
 5606 Fit       0.004146
 5607 Fit       0.003923
 5608 Fit       0.003723
 5609 Fit       0.003626
 5610 Fit       0.004725
 5611 Fit       0.004580
 5612 Fit       0.004554
 5613 Fit       0.004561
 5614 Fit       0.004545
 5615 Fit       0.004567
 5616 Fit       0.004437
 5617 Fit       0.004275
 5618 Fit       0.004131
 5619 Fit       0.004099
 5620 Fit       0.004329
 5621 Fit       0.005460
 5622 Fit       0.004982
 5623 Fit       0.004784
 5624 Fit       0.004705
 5625 Fit       0.004651
 5626 Fit       0.004603
 5627 Fit       0.004491
 5628 Fit       0.004397
 5629 Fit       0.004410
 5630 Fit       0.005039
 5631 Fit       0.004820
 5632 Fit       0.004703
 5633 Fit       0.004596
 5634 Fit       0.004521
 5635 Fit       0.004560
 5636 Fit       0.004942
 5637 Fit       0.004721
 -----------------------------------------------------------------
 Leave Link  602 at Mon Dec 12 17:07:46 2022, MaxMem=   134217728 cpu:         0.3

 Test job not archived.
 1\1\NSC-N1093\SP\RHF\6-31G(d)\C8H10O1\X_GABOA\12-Dec-2022\0\\#HF/6-31G
 * scrf=smd SCF=tight Test Pop=MK iop(6/33=2) iop(6/42=6) # iop(6/50=1)
 \\calc RESP charges\\0,1\C,0,-3.176418,-0.015081,0.787256\C,0,-2.40404
 2,0.037118,-0.534459\H,0,-2.699,-0.806015,-1.151647\H,0,-2.685146,0.93
 523,-1.075497\C,0,-0.902184,0.017313,-0.341499\C,0,-0.204847,-1.184339
 ,-0.242238\H,0,-0.737494,-2.115398,-0.332077\C,0,1.163258,-1.214883,-0
 .034639\H,0,1.690241,-2.149193,0.037111\C,0,1.866063,-0.024584,0.07842
 1\O,0,3.212587,-0.096944,0.281626\H,0,3.582865,0.777156,0.34315\C,0,-0
 .173511,1.194811,-0.226946\H,0,-0.678553,2.142165,-0.304081\C,0,1.1982
 9,1.184431,-0.018962\H,0,1.745218,2.107584,0.063278\H,0,-2.929251,0.83
 4961,1.416323\H,0,-2.9415,-0.919504,1.340582\H,0,-4.247732,-0.000159,0
 .608248\\Version=ES64L-G09RevE.01\State=1-A\HF=-383.6386835\RMSD=3.789
 e-09\Dipole=-0.2935313,0.7982718,-0.0459713\Quadrupole=0.8105843,3.780
 2088,-4.5907931,5.5780532,1.142645,0.5873193\PG=C01 [X(C8H10O1)]\\@


 WOE UNTO THEM THAT CALL EVIL GOOD, AND GOOD EVIL      
 Job cpu time:       0 days  0 hours  0 minutes 14.3 seconds.
 File lengths (MBytes):  RWF=     47 Int=      0 D2E=      0 Chk=      8 Scr=      1
 Normal termination of Gaussian 09 at Mon Dec 12 17:07:46 2022.
