 Entering Gaussian System, Link 0=/software/sse/easybuild/prefix/software/Gaussian/09.E.01-avx-nsc1-bdist/g09/g09.orig
 Input=3ov.wrap
 Output=3ov.log
 Initial command:
 /software/sse/easybuild/prefix/software/Gaussian/09.E.01-avx-nsc1-bdist/g09/l1.exe "/scratch/local/Gau-180253.inp" -scrdir="/scratch/local/"
 Entering Link 1 = /software/sse/easybuild/prefix/software/Gaussian/09.E.01-avx-nsc1-bdist/g09/l1.exe PID=    180254.
  
 Copyright (c) 1988,1990,1992,1993,1995,1998,2003,2009,2015,
            Gaussian, Inc.  All Rights Reserved.
  
 This is part of the Gaussian(R) 09 program.  It is based on
 the Gaussian(R) 03 system (copyright 2003, Gaussian, Inc.),
 the Gaussian(R) 98 system (copyright 1998, Gaussian, Inc.),
 the Gaussian(R) 94 system (copyright 1995, Gaussian, Inc.),
 the Gaussian 92(TM) system (copyright 1992, Gaussian, Inc.),
 the Gaussian 90(TM) system (copyright 1990, Gaussian, Inc.),
 the Gaussian 88(TM) system (copyright 1988, Gaussian, Inc.),
 the Gaussian 86(TM) system (copyright 1986, Carnegie Mellon
 University), and the Gaussian 82(TM) system (copyright 1983,
 Carnegie Mellon University). Gaussian is a federally registered
 trademark of Gaussian, Inc.
  
 This software contains proprietary and confidential information,
 including trade secrets, belonging to Gaussian, Inc.
  
 This software is provided under written license and may be
 used, copied, transmitted, or stored only in accord with that
 written license.
  
 The following legend is applicable only to US Government
 contracts under FAR:
  
                    RESTRICTED RIGHTS LEGEND
  
 Use, reproduction and disclosure by the US Government is
 subject to restrictions as set forth in subparagraphs (a)
 and (c) of the Commercial Computer Software - Restricted
 Rights clause in FAR 52.227-19.
  
 Gaussian, Inc.
 340 Quinnipiac St., Bldg. 40, Wallingford CT 06492
  
  
 ---------------------------------------------------------------
 Warning -- This program may not be used in any manner that
 competes with the business of Gaussian, Inc. or will provide
 assistance to any competitor of Gaussian, Inc.  The licensee
 of this program is prohibited from giving any competitor of
 Gaussian, Inc. access to this program.  By using this program,
 the user acknowledges that Gaussian, Inc. is engaged in the
 business of creating and licensing software in the field of
 computational chemistry and represents and warrants to the
 licensee that it is not a competitor of Gaussian, Inc. and that
 it will not use this program in any manner prohibited above.
 ---------------------------------------------------------------
  

 Cite this work as:
 Gaussian 09, Revision E.01,
 M. J. Frisch, G. W. Trucks, H. B. Schlegel, G. E. Scuseria, 
 M. A. Robb, J. R. Cheeseman, G. Scalmani, V. Barone, B. Mennucci, 
 G. A. Petersson, H. Nakatsuji, M. Caricato, X. Li, H. P. Hratchian, 
 A. F. Izmaylov, J. Bloino, G. Zheng, J. L. Sonnenberg, M. Hada, 
 M. Ehara, K. Toyota, R. Fukuda, J. Hasegawa, M. Ishida, T. Nakajima, 
 Y. Honda, O. Kitao, H. Nakai, T. Vreven, J. A. Montgomery, Jr., 
 J. E. Peralta, F. Ogliaro, M. Bearpark, J. J. Heyd, E. Brothers, 
 K. N. Kudin, V. N. Staroverov, T. Keith, R. Kobayashi, J. Normand, 
 K. Raghavachari, A. Rendell, J. C. Burant, S. S. Iyengar, J. Tomasi, 
 M. Cossi, N. Rega, J. M. Millam, M. Klene, J. E. Knox, J. B. Cross, 
 V. Bakken, C. Adamo, J. Jaramillo, R. Gomperts, R. E. Stratmann, 
 O. Yazyev, A. J. Austin, R. Cammi, C. Pomelli, J. W. Ochterski, 
 R. L. Martin, K. Morokuma, V. G. Zakrzewski, G. A. Voth, 
 P. Salvador, J. J. Dannenberg, S. Dapprich, A. D. Daniels, 
 O. Farkas, J. B. Foresman, J. V. Ortiz, J. Cioslowski, 
 and D. J. Fox, Gaussian, Inc., Wallingford CT, 2013.
 
 ******************************************
 Gaussian 09:  ES64L-G09RevE.01 30-Nov-2015
                12-Dec-2022 
 ******************************************
 %nproc=16
 Will use up to   16 processors via shared memory.
 %chk=3ov
 -----------------------
 #HF/6-31G* scrf=smd opt
 -----------------------
 1/14=-1,18=20,19=15,38=1/1,3;
 2/9=110,12=2,17=6,18=5,40=1/2;
 3/5=1,6=6,7=1,11=9,16=1,25=1,30=1,70=32201,71=1,72=1/1,2,3;
 4//1;
 5/5=2,38=5/2;
 6/7=2,8=2,9=2,10=2,28=1/1;
 7//1,2,3,16;
 1/14=-1,18=20,19=15/3(2);
 2/9=110/2;
 99//99;
 2/9=110/2;
 3/5=1,6=6,7=1,11=9,16=1,25=1,30=1,70=32205,71=1/1,2,3;
 4/5=5,16=3,69=1/1;
 5/5=2,38=5/2;
 7//1,2,3,16;
 1/14=-1,18=20,19=15/3(-5);
 2/9=110/2;
 6/7=2,8=2,9=2,10=2,19=2,28=1/1;
 99/9=1/99;
 ---------------------
 remark line goes here
 ---------------------
 Symbolic Z-matrix:
 Charge = -1 Multiplicity = 1
 O                    -22.743   -11.309   -25.221 
 C                    -22.145   -10.345   -24.657 
 O                    -22.039   -10.165   -23.396 
 C                    -21.338   -9.346    -25.524 
 C                    -21.876   -8.588    -26.663 
 O                    -22.297   -7.373    -26.48 
 C                    -21.99    -9.098    -28.065 
 H                    -20.812   -8.684    -24.821 
 H                    -20.552   -9.948    -26.004 
 H                    -21.043   -9.151    -28.618 
 H                    -22.645   -8.474    -28.68 
 C                    -22.588   -10.502   -27.986 
 H                    -22.732   -10.906   -28.993 
 H                    -23.562   -10.496   -27.486 
 H                    -21.929   -11.186   -27.442 
 

 GradGradGradGradGradGradGradGradGradGradGradGradGradGradGradGradGradGrad
 Berny optimization.
 Initialization pass.
                           ----------------------------
                           !    Initial Parameters    !
                           ! (Angstroms and Degrees)  !
 --------------------------                            --------------------------
 ! Name  Definition              Value          Derivative Info.                !
 --------------------------------------------------------------------------------
 ! R1    R(1,2)                  1.2669         estimate D2E/DX2                !
 ! R2    R(2,3)                  1.2782         estimate D2E/DX2                !
 ! R3    R(2,4)                  1.5495         estimate D2E/DX2                !
 ! R4    R(4,5)                  1.4701         estimate D2E/DX2                !
 ! R5    R(4,8)                  1.0996         estimate D2E/DX2                !
 ! R6    R(4,9)                  1.1003         estimate D2E/DX2                !
 ! R7    R(5,6)                  1.2988         estimate D2E/DX2                !
 ! R8    R(5,7)                  1.4962         estimate D2E/DX2                !
 ! R9    R(7,10)                 1.0979         estimate D2E/DX2                !
 ! R10   R(7,11)                 1.0939         estimate D2E/DX2                !
 ! R11   R(7,12)                 1.5281         estimate D2E/DX2                !
 ! R12   R(12,13)                1.0945         estimate D2E/DX2                !
 ! R13   R(12,14)                1.0949         estimate D2E/DX2                !
 ! R14   R(12,15)                1.0946         estimate D2E/DX2                !
 ! A1    A(1,2,3)              125.8385         estimate D2E/DX2                !
 ! A2    A(1,2,4)              119.1649         estimate D2E/DX2                !
 ! A3    A(3,2,4)              114.7102         estimate D2E/DX2                !
 ! A4    A(2,4,5)              125.1226         estimate D2E/DX2                !
 ! A5    A(2,4,8)              106.2338         estimate D2E/DX2                !
 ! A6    A(2,4,9)              105.272          estimate D2E/DX2                !
 ! A7    A(5,4,8)              111.0979         estimate D2E/DX2                !
 ! A8    A(5,4,9)              101.8608         estimate D2E/DX2                !
 ! A9    A(8,4,9)              105.461          estimate D2E/DX2                !
 ! A10   A(4,5,6)              119.4574         estimate D2E/DX2                !
 ! A11   A(4,5,7)              125.317          estimate D2E/DX2                !
 ! A12   A(6,5,7)              115.2256         estimate D2E/DX2                !
 ! A13   A(5,7,10)             115.0049         estimate D2E/DX2                !
 ! A14   A(5,7,11)             112.2089         estimate D2E/DX2                !
 ! A15   A(5,7,12)             107.1306         estimate D2E/DX2                !
 ! A16   A(10,7,11)            105.1193         estimate D2E/DX2                !
 ! A17   A(10,7,12)            108.6164         estimate D2E/DX2                !
 ! A18   A(11,7,12)            108.5936         estimate D2E/DX2                !
 ! A19   A(7,12,13)            110.0631         estimate D2E/DX2                !
 ! A20   A(7,12,14)            111.5131         estimate D2E/DX2                !
 ! A21   A(7,12,15)            111.361          estimate D2E/DX2                !
 ! A22   A(13,12,14)           107.7667         estimate D2E/DX2                !
 ! A23   A(13,12,15)           107.8067         estimate D2E/DX2                !
 ! A24   A(14,12,15)           108.1834         estimate D2E/DX2                !
 ! D1    D(1,2,4,5)             55.3882         estimate D2E/DX2                !
 ! D2    D(1,2,4,8)           -173.0692         estimate D2E/DX2                !
 ! D3    D(1,2,4,9)            -61.5189         estimate D2E/DX2                !
 ! D4    D(3,2,4,5)           -130.4001         estimate D2E/DX2                !
 ! D5    D(3,2,4,8)              1.1426         estimate D2E/DX2                !
 ! D6    D(3,2,4,9)            112.6928         estimate D2E/DX2                !
 ! D7    D(2,4,5,6)             95.8451         estimate D2E/DX2                !
 ! D8    D(2,4,5,7)            -84.1746         estimate D2E/DX2                !
 ! D9    D(8,4,5,6)            -33.7782         estimate D2E/DX2                !
 ! D10   D(8,4,5,7)            146.202          estimate D2E/DX2                !
 ! D11   D(9,4,5,6)           -145.679          estimate D2E/DX2                !
 ! D12   D(9,4,5,7)             34.3013         estimate D2E/DX2                !
 ! D13   D(4,5,7,10)           -74.7371         estimate D2E/DX2                !
 ! D14   D(4,5,7,11)           165.1773         estimate D2E/DX2                !
 ! D15   D(4,5,7,12)            46.084          estimate D2E/DX2                !
 ! D16   D(6,5,7,10)           105.2439         estimate D2E/DX2                !
 ! D17   D(6,5,7,11)           -14.8417         estimate D2E/DX2                !
 ! D18   D(6,5,7,12)          -133.935          estimate D2E/DX2                !
 ! D19   D(5,7,12,13)          177.6313         estimate D2E/DX2                !
 ! D20   D(5,7,12,14)           58.0841         estimate D2E/DX2                !
 ! D21   D(5,7,12,15)          -62.869          estimate D2E/DX2                !
 ! D22   D(10,7,12,13)         -57.5788         estimate D2E/DX2                !
 ! D23   D(10,7,12,14)        -177.1261         estimate D2E/DX2                !
 ! D24   D(10,7,12,15)          61.9208         estimate D2E/DX2                !
 ! D25   D(11,7,12,13)          56.2316         estimate D2E/DX2                !
 ! D26   D(11,7,12,14)         -63.3157         estimate D2E/DX2                !
 ! D27   D(11,7,12,15)         175.7312         estimate D2E/DX2                !
 --------------------------------------------------------------------------------
 Trust Radius=3.00D-01 FncErr=1.00D-07 GrdErr=1.00D-07
 Number of steps in this run=     75 maximum allowed number of steps=    100.
 GradGradGradGradGradGradGradGradGradGradGradGradGradGradGradGradGradGrad

                          Input orientation:                          
 ---------------------------------------------------------------------
 Center     Atomic      Atomic             Coordinates (Angstroms)
 Number     Number       Type             X           Y           Z
 ---------------------------------------------------------------------
      1          8           0      -22.743000  -11.309000  -25.221000
      2          6           0      -22.145000  -10.345000  -24.657000
      3          8           0      -22.039000  -10.165000  -23.396000
      4          6           0      -21.338000   -9.346000  -25.524000
      5          6           0      -21.876000   -8.588000  -26.663000
      6          8           0      -22.297000   -7.373000  -26.480000
      7          6           0      -21.990000   -9.098000  -28.065000
      8          1           0      -20.812000   -8.684000  -24.821000
      9          1           0      -20.552000   -9.948000  -26.004000
     10          1           0      -21.043000   -9.151000  -28.618000
     11          1           0      -22.645000   -8.474000  -28.680000
     12          6           0      -22.588000  -10.502000  -27.986000
     13          1           0      -22.732000  -10.906000  -28.993000
     14          1           0      -23.562000  -10.496000  -27.486000
     15          1           0      -21.929000  -11.186000  -27.442000
 ---------------------------------------------------------------------
                    Distance matrix (angstroms):
                    1          2          3          4          5
     1  O    0.000000
     2  C    1.266884   0.000000
     3  O    2.266049   1.278185   0.000000
     4  C    2.432941   1.549496   2.385487   0.000000
     5  C    3.199202   2.680195   3.631362   1.470146   0.000000
     6  O    4.156452   3.489873   4.168079   2.392978   1.298828
     7  C    3.680199   3.632286   4.789619   2.635012   1.496229
     8  H    3.283198   2.136049   2.393641   1.099604   2.129384
     9  H    2.695532   2.123598   3.009970   1.100273   2.009193
    10  H    4.368818   4.281304   5.411977   3.114143   2.198382
    11  H    4.473423   4.464882   5.580983   3.525474   2.161630
    12  C    2.884528   3.362014   4.634983   2.993373   2.433242
    13  H    3.793483   4.411370   5.688211   4.051024   3.396286
    14  H    2.542038   3.167638   4.376893   3.180899   2.675890
    15  H    2.368663   2.917218   4.174285   2.722794   2.712795
                    6          7          8          9         10
     6  O    0.000000
     7  C    2.362647   0.000000
     8  H    2.583840   3.476006   0.000000
     9  H    3.146780   2.652935   1.750653   0.000000
    10  H    3.050384   1.097919   3.832579   2.776560   0.000000
    11  H    2.484614   1.093904   4.277367   3.703282   1.740281
    12  C    3.484732   1.528091   4.059129   2.894916   2.147475
    13  H    4.357348   2.163472   5.101889   3.821555   2.464421
    14  H    3.516446   2.181932   4.236516   3.399519   3.071776
    15  H    3.949663   2.179815   3.791746   2.344487   2.511811
                   11         12         13         14         15
    11  H    0.000000
    12  C    2.144218   0.000000
    13  H    2.453602   1.094532   0.000000
    14  H    2.520914   1.094857   1.768629   0.000000
    15  H    3.065982   1.094565   1.768844   1.773337   0.000000
 Stoichiometry    C5H7O3(1-)
 Framework group  C1[X(C5H7O3)]
 Deg. of freedom    39
 Full point group                 C1      NOp   1
 Largest Abelian subgroup         C1      NOp   1
 Largest concise Abelian subgroup C1      NOp   1
                         Standard orientation:                         
 ---------------------------------------------------------------------
 Center     Atomic      Atomic             Coordinates (Angstroms)
 Number     Number       Type             X           Y           Z
 ---------------------------------------------------------------------
      1          8           0        1.412307    1.357966   -0.335163
      2          6           0        1.579854    0.145481   -0.008351
      3          8           0        2.681821   -0.499620   -0.065550
      4          6           0        0.411039   -0.626440    0.654180
      5          6           0       -0.936084   -0.773724    0.084183
      6          8           0       -1.228756   -1.840933   -0.595790
      7          6           0       -2.044686    0.222446    0.215890
      8          1           0        0.820036   -1.600233    0.960083
      9          1           0        0.202602   -0.088469    1.591059
     10          1           0       -2.525192    0.254305    1.202564
     11          1           0       -2.857399    0.032540   -0.491259
     12          6           0       -1.451019    1.598577   -0.082245
     13          1           0       -2.233892    2.362351   -0.040279
     14          1           0       -1.002282    1.634608   -1.080268
     15          1           0       -0.681474    1.867550    0.648184
 ---------------------------------------------------------------------
 Rotational constants (GHZ):      3.0651898      1.5264865      1.1088528
 Standard basis: 6-31G(d) (6D, 7F)
 There are   134 symmetry adapted cartesian basis functions of A   symmetry.
 There are   134 symmetry adapted basis functions of A   symmetry.
   134 basis functions,   252 primitive gaussians,   134 cartesian basis functions
    31 alpha electrons       31 beta electrons
       nuclear repulsion energy       362.3144262008 Hartrees.
 NAtoms=   15 NActive=   15 NUniq=   15 SFac= 1.00D+00 NAtFMM=   60 NAOKFM=F Big=F
 Integral buffers will be    131072 words long.
 Raffenetti 1 integral format.
 Two-electron integral symmetry is turned on.
 ------------------------------------------------------------------------------
 Polarizable Continuum Model (PCM)
 =================================
 Model                : PCM (using non-symmetric T matrix).
 Atomic radii         : SMD-Coulomb.
 Polarization charges : Total charges.
 Charge compensation  : None.
 Solution method      : On-the-fly selection.
 Cavity type          : VdW (van der Waals Surface) (Alpha=1.000).
 Cavity algorithm     : GePol (No added spheres)
                        Default sphere list used, NSphG=   15.
                        Lebedev-Laikov grids with approx.  5.0 points / Ang**2.
                        Smoothing algorithm: York/Karplus (Gamma=1.0000).
                        Polarization charges: spherical gaussians, with
                                              point-specific exponents (IZeta= 3).
                        Self-potential: point-specific (ISelfS= 7).
                        Self-field    : sphere-specific E.n sum rule (ISelfD= 2).
 1st derivatives      : Analytical E(r).r(x)/FMM algorithm (CHGder, D1EAlg=3).
                        Cavity 1st derivative terms included.
 Solvent              : Water, Eps=  78.355300 Eps(inf)=   1.777849
 ------------------------------------------------------------------------------
 Spheres list:
 ISph  on   Nord     Re0    Alpha      Xe            Ye            Ze
    1   O      1    1.5200  1.000      1.412307      1.357966     -0.335163
    2   C      2    1.8500  1.000      1.579854      0.145481     -0.008351
    3   O      3    1.5200  1.000      2.681821     -0.499620     -0.065550
    4   C      4    1.8500  1.000      0.411039     -0.626440      0.654180
    5   C      5    1.8500  1.000     -0.936084     -0.773724      0.084183
    6   O      6    1.5200  1.000     -1.228756     -1.840933     -0.595790
    7   C      7    1.8500  1.000     -2.044686      0.222446      0.215890
    8   H      8    1.2000  1.000      0.820036     -1.600233      0.960083
    9   H      9    1.2000  1.000      0.202602     -0.088469      1.591059
   10   H     10    1.2000  1.000     -2.525192      0.254305      1.202564
   11   H     11    1.2000  1.000     -2.857399      0.032540     -0.491259
   12   C     12    1.8500  1.000     -1.451019      1.598577     -0.082245
   13   H     13    1.2000  1.000     -2.233892      2.362351     -0.040279
   14   H     14    1.2000  1.000     -1.002282      1.634608     -1.080268
   15   H     15    1.2000  1.000     -0.681474      1.867550      0.648184
 ------------------------------------------------------------------------------
 ------------------------------------------------------------------------------
 Atomic radii for non-electrostatic terms: SMD-CDS.
 ------------------------------------------------------------------------------
 Nuclear repulsion after PCM non-electrostatic terms =      362.3223564400 Hartrees.
 One-electron integrals computed using PRISM.
 NBasis=   134 RedAO= T EigKep=  3.15D-03  NBF=   134
 NBsUse=   134 1.00D-06 EigRej= -1.00D+00 NBFU=   134
 ExpMin= 1.61D-01 ExpMax= 5.48D+03 ExpMxC= 8.25D+02 IAcc=1 IRadAn=         1 AccDes= 0.00D+00
 Harris functional with IExCor=  205 and IRadAn=       1 diagonalized for initial guess.
 HarFok:  IExCor=  205 AccDes= 0.00D+00 IRadAn=         1 IDoV= 1 UseB2=F ITyADJ=14
 ICtDFT=  3500011 ScaDFX=  1.000000  1.000000  1.000000  1.000000
 FoFCou: FMM=F IPFlag=           0 FMFlag=      100000 FMFlg1=           0
         NFxFlg=           0 DoJE=T BraDBF=F KetDBF=T FulRan=T
         wScrn=  0.000000 ICntrl=     500 IOpCl=  0 I1Cent=   200000004 NGrid=           0
         NMat0=    1 NMatS0=      1 NMatT0=    0 NMatD0=    1 NMtDS0=    0 NMtDT0=    0
 Petite list used in FoFCou.
 Keep R1 ints in memory in canonical form, NReq=45472596.
 Requested convergence on RMS density matrix=1.00D-08 within 128 cycles.
 Requested convergence on MAX density matrix=1.00D-06.
 Requested convergence on             energy=1.00D-06.
 No special actions if energy rises.
 Inv3:  Mode=1 IEnd=     3995148.
 Iteration    1 A*A^-1 deviation from unit magnitude is 2.89D-15 for    122.
 Iteration    1 A*A^-1 deviation from orthogonality  is 2.47D-15 for   1132    350.
 Iteration    1 A^-1*A deviation from unit magnitude is 2.44D-15 for   1127.
 Iteration    1 A^-1*A deviation from orthogonality  is 3.87D-10 for    835    804.
 Iteration    2 A*A^-1 deviation from unit magnitude is 1.67D-15 for     36.
 Iteration    2 A*A^-1 deviation from orthogonality  is 1.77D-15 for    813    161.
 Iteration    2 A^-1*A deviation from unit magnitude is 8.88D-16 for     77.
 Iteration    2 A^-1*A deviation from orthogonality  is 3.24D-16 for    844    100.
 Error on total polarization charges =  0.03783
 SCF Done:  E(RHF) =  -418.121916975     A.U. after   15 cycles
            NFock= 15  Conv=0.52D-08     -V/T= 2.0028
 SMD-CDS (non-electrostatic) energy       (kcal/mol) =       4.98
 (included in total energy above)

 **********************************************************************

            Population analysis using the SCF density.

 **********************************************************************

 Orbital symmetries:
       Occupied  (A) (A) (A) (A) (A) (A) (A) (A) (A) (A) (A) (A)
                 (A) (A) (A) (A) (A) (A) (A) (A) (A) (A) (A) (A)
                 (A) (A) (A) (A) (A) (A) (A)
       Virtual   (A) (A) (A) (A) (A) (A) (A) (A) (A) (A) (A) (A)
                 (A) (A) (A) (A) (A) (A) (A) (A) (A) (A) (A) (A)
                 (A) (A) (A) (A) (A) (A) (A) (A) (A) (A) (A) (A)
                 (A) (A) (A) (A) (A) (A) (A) (A) (A) (A) (A) (A)
                 (A) (A) (A) (A) (A) (A) (A) (A) (A) (A) (A) (A)
                 (A) (A) (A) (A) (A) (A) (A) (A) (A) (A) (A) (A)
                 (A) (A) (A) (A) (A) (A) (A) (A) (A) (A) (A) (A)
                 (A) (A) (A) (A) (A) (A) (A) (A) (A) (A) (A) (A)
                 (A) (A) (A) (A) (A) (A) (A)
 The electronic state is 1-A.
 Alpha  occ. eigenvalues --  -20.55036 -20.49975 -20.49904 -11.35406 -11.34979
 Alpha  occ. eigenvalues --  -11.22901 -11.22691 -11.20549  -1.36442  -1.34147
 Alpha  occ. eigenvalues --   -1.26146  -1.06784  -1.00355  -0.87013  -0.77375
 Alpha  occ. eigenvalues --   -0.70051  -0.65067  -0.64353  -0.61360  -0.59956
 Alpha  occ. eigenvalues --   -0.59791  -0.54853  -0.53271  -0.51539  -0.50611
 Alpha  occ. eigenvalues --   -0.48778  -0.46616  -0.42398  -0.40415  -0.39988
 Alpha  occ. eigenvalues --   -0.39830
 Alpha virt. eigenvalues --    0.12842   0.21501   0.25858   0.29718   0.30965
 Alpha virt. eigenvalues --    0.31418   0.33387   0.34174   0.36212   0.39384
 Alpha virt. eigenvalues --    0.42147   0.45419   0.50069   0.52613   0.55025
 Alpha virt. eigenvalues --    0.59450   0.72882   0.75148   0.76886   0.79755
 Alpha virt. eigenvalues --    0.82798   0.84550   0.86278   0.87349   0.88057
 Alpha virt. eigenvalues --    0.93458   0.95713   0.97051   0.99097   1.02435
 Alpha virt. eigenvalues --    1.05484   1.08828   1.12449   1.13051   1.13711
 Alpha virt. eigenvalues --    1.14943   1.17684   1.18323   1.19609   1.23170
 Alpha virt. eigenvalues --    1.27102   1.27409   1.30390   1.32286   1.34173
 Alpha virt. eigenvalues --    1.35027   1.37390   1.41029   1.43964   1.51682
 Alpha virt. eigenvalues --    1.61120   1.63560   1.69981   1.72081   1.78005
 Alpha virt. eigenvalues --    1.83961   1.84193   1.90976   1.96224   2.01389
 Alpha virt. eigenvalues --    2.05103   2.08575   2.11889   2.12432   2.15560
 Alpha virt. eigenvalues --    2.16276   2.17617   2.19381   2.22215   2.26287
 Alpha virt. eigenvalues --    2.28213   2.29154   2.29754   2.34382   2.38784
 Alpha virt. eigenvalues --    2.43285   2.48970   2.58187   2.61575   2.66542
 Alpha virt. eigenvalues --    2.68218   2.70949   2.74176   2.80722   2.88095
 Alpha virt. eigenvalues --    2.89379   2.96510   3.02978   3.09285   3.16006
 Alpha virt. eigenvalues --    3.24554   3.28949   3.29897   3.36965   3.47994
 Alpha virt. eigenvalues --    4.29373   4.32449   4.51636   4.62647   4.67578
 Alpha virt. eigenvalues --    4.74243   4.93331   5.00247
          Condensed to atoms (all electrons):
               1          2          3          4          5          6
     1  O    8.512018   0.493036  -0.086285  -0.118677   0.003933   0.000013
     2  C    0.493036   3.966544   0.493135   0.309429  -0.011912   0.000520
     3  O   -0.086285   0.493135   8.534574  -0.104536   0.001236   0.000013
     4  C   -0.118677   0.309429  -0.104536   5.560244   0.289207  -0.072026
     5  C    0.003933  -0.011912   0.001236   0.289207   4.472348   0.487131
     6  O    0.000013   0.000520   0.000013  -0.072026   0.487131   8.378784
     7  C   -0.000566   0.000398  -0.000034  -0.063197   0.350828  -0.071207
     8  H    0.002891  -0.025068   0.006360   0.374131  -0.028666  -0.000895
     9  H    0.000687  -0.023363   0.000604   0.365437  -0.043196   0.003117
    10  H   -0.000034   0.000072  -0.000000   0.001330  -0.026125   0.001034
    11  H   -0.000013  -0.000093   0.000000   0.003106  -0.039958   0.001848
    12  C   -0.013616  -0.001454  -0.000016  -0.003042  -0.060345   0.001817
    13  H    0.000676   0.000088   0.000000  -0.000265   0.005253  -0.000073
    14  H    0.002214   0.000864  -0.000009  -0.000550  -0.001963   0.000357
    15  H    0.005226  -0.002499   0.000016   0.000391  -0.006016   0.000032
               7          8          9         10         11         12
     1  O   -0.000566   0.002891   0.000687  -0.000034  -0.000013  -0.013616
     2  C    0.000398  -0.025068  -0.023363   0.000072  -0.000093  -0.001454
     3  O   -0.000034   0.006360   0.000604  -0.000000   0.000000  -0.000016
     4  C   -0.063197   0.374131   0.365437   0.001330   0.003106  -0.003042
     5  C    0.350828  -0.028666  -0.043196  -0.026125  -0.039958  -0.060345
     6  O   -0.071207  -0.000895   0.003117   0.001034   0.001848   0.001817
     7  C    5.214490   0.002343   0.001929   0.383240   0.401418   0.296978
     8  H    0.002343   0.456894  -0.021865  -0.000157  -0.000036   0.000270
     9  H    0.001929  -0.021865   0.488525  -0.000033   0.000068  -0.003454
    10  H    0.383240  -0.000157  -0.000033   0.476277  -0.022400  -0.033417
    11  H    0.401418  -0.000036   0.000068  -0.022400   0.483222  -0.037376
    12  C    0.296978   0.000270  -0.003454  -0.033417  -0.037376   5.196312
    13  H   -0.031801   0.000002  -0.000029  -0.003935  -0.003063   0.384754
    14  H   -0.040855  -0.000054   0.000171   0.003697  -0.001904   0.395276
    15  H   -0.033423   0.000126   0.000824  -0.002338   0.003446   0.390225
              13         14         15
     1  O    0.000676   0.002214   0.005226
     2  C    0.000088   0.000864  -0.002499
     3  O    0.000000  -0.000009   0.000016
     4  C   -0.000265  -0.000550   0.000391
     5  C    0.005253  -0.001963  -0.006016
     6  O   -0.000073   0.000357   0.000032
     7  C   -0.031801  -0.040855  -0.033423
     8  H    0.000002  -0.000054   0.000126
     9  H   -0.000029   0.000171   0.000824
    10  H   -0.003935   0.003697  -0.002338
    11  H   -0.003063  -0.001904   0.003446
    12  C    0.384754   0.395276   0.390225
    13  H    0.528773  -0.026979  -0.025261
    14  H   -0.026979   0.520292  -0.026650
    15  H   -0.025261  -0.026650   0.509759
 Mulliken charges:
               1
     1  O   -0.801505
     2  C    0.800302
     3  O   -0.845059
     4  C   -0.540982
     5  C    0.608242
     6  O   -0.730466
     7  C   -0.410543
     8  H    0.233725
     9  H    0.230578
    10  H    0.222789
    11  H    0.211735
    12  C   -0.512913
    13  H    0.171858
    14  H    0.176094
    15  H    0.186143
 Sum of Mulliken charges =  -1.00000
 Mulliken charges with hydrogens summed into heavy atoms:
               1
     1  O   -0.801505
     2  C    0.800302
     3  O   -0.845059
     4  C   -0.076679
     5  C    0.608242
     6  O   -0.730466
     7  C    0.023982
    12  C    0.021182
 Electronic spatial extent (au):  <R**2>=           1067.7167
 Charge=             -1.0000 electrons
 Dipole moment (field-independent basis, Debye):
    X=             -9.8932    Y=              1.5174    Z=              4.3815  Tot=             10.9259
 Quadrupole moment (field-independent basis, Debye-Ang):
   XX=            -76.0461   YY=            -65.4862   ZZ=            -47.5575
   XY=             -7.7745   XZ=             -0.1664   YZ=             -2.2586
 Traceless Quadrupole moment (field-independent basis, Debye-Ang):
   XX=            -13.0161   YY=             -2.4563   ZZ=             15.4724
   XY=             -7.7745   XZ=             -0.1664   YZ=             -2.2586
 Octapole moment (field-independent basis, Debye-Ang**2):
  XXX=            -76.8383  YYY=              5.3927  ZZZ=              1.5336  XYY=              1.0281
  XXY=             12.8425  XXZ=              9.3923  XZZ=              0.9438  YZZ=              0.4703
  YYZ=             10.4110  XYZ=              6.5557
 Hexadecapole moment (field-independent basis, Debye-Ang**3):
 XXXX=          -1008.4192 YYYY=           -468.1890 ZZZZ=           -100.2445 XXXY=             13.8459
 XXXZ=              4.4210 YYYX=            -31.7799 YYYZ=             -9.5989 ZZZX=             -1.8921
 ZZZY=              0.9177 XXYY=           -243.1957 XXZZ=           -153.0779 YYZZ=            -90.9511
 XXYZ=             -1.2644 YYXZ=             -3.7012 ZZXY=             -1.2402
 N-N= 3.623223564400D+02 E-N=-1.719677938777D+03  KE= 4.169393266121D+02
 D1PCM: PCM CHGder 1st derivatives, ID1Alg=3 FixD1E=F DoIter=F DoCFld=F I1PDM=0.
 Calling FoFJK, ICntrl=      2127 FMM=F ISym2X=0 I1Cent= 0 IOpClX= 0 NMat=1 NMatS=1 NMatT=0.
 ***** Axes restored to original set *****
 -------------------------------------------------------------------
 Center     Atomic                   Forces (Hartrees/Bohr)
 Number     Number              X              Y              Z
 -------------------------------------------------------------------
      1        8           0.019215589    0.037580837    0.030647773
      2        6          -0.015551008   -0.025304629    0.024004849
      3        8          -0.007235111   -0.007288726   -0.053317618
      4        6           0.041981826   -0.018785662    0.012572355
      5        6          -0.060335972    0.141357773   -0.001195836
      6        8           0.037878049   -0.101119959   -0.006171263
      7        6          -0.004575663   -0.023085806   -0.012927814
      8        1          -0.012096106   -0.000531221   -0.013027184
      9        1          -0.002691889   -0.001783097    0.010914891
     10        1          -0.000905778    0.002649510    0.014611368
     11        1           0.005208635    0.002948188    0.013770254
     12        6          -0.002235400   -0.016520584   -0.012383034
     13        1           0.000769734    0.003178813    0.004695105
     14        1           0.008786451    0.000210146   -0.004843927
     15        1          -0.008213356    0.006494419   -0.007349920
 -------------------------------------------------------------------
 Cartesian Forces:  Max     0.141357773 RMS     0.032340173

 GradGradGradGradGradGradGradGradGradGradGradGradGradGradGradGradGradGrad
 Berny optimization.
 FormGI is forming the generalized inverse of G from B-inverse, IUseBI=4.
 Internal  Forces:  Max     0.107743132 RMS     0.019494196
 Search for a local minimum.
 Step number   1 out of a maximum of   75
 All quantities printed in internal units (Hartrees-Bohrs-Radians)
 Mixed Optimization -- RFO/linear search
 Second derivative matrix not updated -- first step.
 ITU=  0
     Eigenvalues ---    0.00230   0.00284   0.00394   0.00816   0.00995
     Eigenvalues ---    0.01161   0.03543   0.04640   0.05456   0.05634
     Eigenvalues ---    0.05677   0.06257   0.08474   0.11857   0.12290
     Eigenvalues ---    0.14379   0.16000   0.16000   0.16000   0.21747
     Eigenvalues ---    0.22159   0.25000   0.25000   0.25000   0.25000
     Eigenvalues ---    0.27694   0.29600   0.32776   0.33652   0.33726
     Eigenvalues ---    0.33913   0.34257   0.34290   0.34294   0.34365
     Eigenvalues ---    0.35723   0.67520   0.73635   0.77298
 RFO step:  Lambda=-5.58891572D-02 EMin= 2.30000000D-03
 Linear search not attempted -- first point.
 Maximum step size (   0.300) exceeded in Quadratic search.
    -- Step size scaled by   0.854
 Iteration  1 RMS(Cart)=  0.20913098 RMS(Int)=  0.01034682
 Iteration  2 RMS(Cart)=  0.01394572 RMS(Int)=  0.00164366
 Iteration  3 RMS(Cart)=  0.00006641 RMS(Int)=  0.00164334
 Iteration  4 RMS(Cart)=  0.00000008 RMS(Int)=  0.00164334
 Variable       Old X    -DE/DX   Delta X   Delta X   Delta X     New X
                                 (Linear)    (Quad)   (Total)
    R1        2.39406  -0.05135   0.00000  -0.05287  -0.05287   2.34119
    R2        2.41542  -0.05421   0.00000  -0.05840  -0.05840   2.35702
    R3        2.92812  -0.00068   0.00000  -0.00174  -0.00174   2.92639
    R4        2.77817   0.02604   0.00000   0.05380   0.05380   2.83197
    R5        2.07795  -0.01443   0.00000  -0.03132  -0.03132   2.04663
    R6        2.07921  -0.00571   0.00000  -0.01242  -0.01242   2.06680
    R7        2.45443  -0.10774   0.00000  -0.12579  -0.12579   2.32864
    R8        2.82746   0.01248   0.00000   0.02776   0.02776   2.85523
    R9        2.07477  -0.00827   0.00000  -0.01787  -0.01787   2.05689
   R10        2.06718  -0.00918   0.00000  -0.01961  -0.01961   2.04757
   R11        2.88767   0.00552   0.00000   0.01338   0.01338   2.90105
   R12        2.06837  -0.00560   0.00000  -0.01199  -0.01199   2.05638
   R13        2.06898  -0.01001   0.00000  -0.02144  -0.02144   2.04754
   R14        2.06843  -0.01264   0.00000  -0.02705  -0.02705   2.04137
    A1        2.19630  -0.00824   0.00000  -0.02145  -0.02204   2.17426
    A2        2.07982   0.01355   0.00000   0.03936   0.03877   2.11859
    A3        2.00207  -0.00486   0.00000  -0.01202  -0.01261   1.98946
    A4        2.18380  -0.00168   0.00000  -0.00794  -0.00982   2.17398
    A5        1.85413   0.00307   0.00000  -0.00882  -0.01130   1.84283
    A6        1.83734  -0.00264   0.00000   0.00993   0.00894   1.84628
    A7        1.93902  -0.01051   0.00000  -0.06653  -0.06765   1.87138
    A8        1.77781   0.01240   0.00000   0.07771   0.07778   1.85558
    A9        1.84064   0.00079   0.00000   0.01037   0.01184   1.85248
   A10        2.08493  -0.01724   0.00000  -0.04812  -0.04888   2.03604
   A11        2.18719   0.01136   0.00000   0.03169   0.03085   2.21804
   A12        2.01107   0.00588   0.00000   0.01640   0.01548   2.02654
   A13        2.00721  -0.02177   0.00000  -0.08562  -0.08900   1.91821
   A14        1.95842  -0.02107   0.00000  -0.08317  -0.08680   1.87161
   A15        1.86978   0.05212   0.00000   0.16808   0.16911   2.03889
   A16        1.83468   0.01095   0.00000   0.02297   0.01827   1.85295
   A17        1.89571  -0.01167   0.00000  -0.01439  -0.01148   1.88424
   A18        1.89532  -0.01003   0.00000  -0.00893  -0.00607   1.88925
   A19        1.92096  -0.00216   0.00000  -0.00990  -0.00989   1.91107
   A20        1.94627  -0.00040   0.00000  -0.00143  -0.00146   1.94481
   A21        1.94362   0.00284   0.00000   0.01244   0.01244   1.95606
   A22        1.88088   0.00055   0.00000  -0.00013  -0.00017   1.88071
   A23        1.88158  -0.00041   0.00000  -0.00188  -0.00184   1.87974
   A24        1.88816  -0.00047   0.00000   0.00065   0.00063   1.88878
    D1        0.96671   0.00750   0.00000   0.05017   0.05008   1.01679
    D2       -3.02063  -0.00721   0.00000  -0.07403  -0.07407  -3.09469
    D3       -1.07371  -0.00618   0.00000  -0.06185  -0.06175  -1.13545
    D4       -2.27591   0.01147   0.00000   0.10796   0.10788  -2.16803
    D5        0.01994  -0.00324   0.00000  -0.01625  -0.01627   0.00367
    D6        1.96686  -0.00221   0.00000  -0.00407  -0.00395   1.96291
    D7        1.67281  -0.00629   0.00000  -0.07078  -0.07102   1.60180
    D8       -1.46912  -0.01255   0.00000  -0.15198  -0.15086  -1.61999
    D9       -0.58954   0.00348   0.00000   0.03424   0.03206  -0.55748
   D10        2.55171  -0.00278   0.00000  -0.04696  -0.04779   2.50392
   D11       -2.54258   0.00038   0.00000   0.00894   0.00934  -2.53324
   D12        0.59867  -0.00588   0.00000  -0.07225  -0.07051   0.52816
   D13       -1.30441  -0.00442   0.00000   0.01139   0.01629  -1.28812
   D14        2.88289   0.01351   0.00000   0.10889   0.10532   2.98821
   D15        0.80432   0.00473   0.00000   0.06070   0.06135   0.86567
   D16        1.83685  -0.01045   0.00000  -0.06677  -0.06319   1.77366
   D17       -0.25904   0.00748   0.00000   0.03073   0.02584  -0.23319
   D18       -2.33761  -0.00130   0.00000  -0.01746  -0.01813  -2.35574
   D19        3.10025  -0.00035   0.00000  -0.00506  -0.00506   3.09519
   D20        1.01376   0.00065   0.00000   0.00256   0.00254   1.01630
   D21       -1.09727  -0.00045   0.00000  -0.00593  -0.00596  -1.10323
   D22       -1.00494  -0.00144   0.00000  -0.01322  -0.01192  -1.01686
   D23       -3.09143  -0.00045   0.00000  -0.00560  -0.00433  -3.09576
   D24        1.08072  -0.00155   0.00000  -0.01408  -0.01282   1.06790
   D25        0.98143   0.00021   0.00000   0.00172   0.00048   0.98191
   D26       -1.10507   0.00121   0.00000   0.00934   0.00808  -1.09698
   D27        3.06709   0.00011   0.00000   0.00086  -0.00042   3.06667
         Item               Value     Threshold  Converged?
 Maximum Force            0.107743     0.000450     NO 
 RMS     Force            0.019494     0.000300     NO 
 Maximum Displacement     0.706840     0.001800     NO 
 RMS     Displacement     0.209543     0.001200     NO 
 Predicted change in Energy=-3.193874D-02
 GradGradGradGradGradGradGradGradGradGradGradGradGradGradGradGradGradGrad

                          Input orientation:                          
 ---------------------------------------------------------------------
 Center     Atomic      Atomic             Coordinates (Angstroms)
 Number     Number       Type             X           Y           Z
 ---------------------------------------------------------------------
      1          8           0      -22.741353  -11.240508  -24.846956
      2          6           0      -22.086875  -10.261905  -24.461106
      3          8           0      -21.953934   -9.925347  -23.267472
      4          6           0      -21.299250   -9.375071  -25.456728
      5          6           0      -21.910847   -8.649843  -26.616830
      6          8           0      -22.282475   -7.492968  -26.411867
      7          6           0      -22.036167   -9.146615  -28.038236
      8          1           0      -20.790425   -8.636824  -24.849239
      9          1           0      -20.517798  -10.017063  -25.873098
     10          1           0      -21.064324   -9.118678  -28.527611
     11          1           0      -22.662553   -8.440963  -28.570898
     12          6           0      -22.623299  -10.551829  -28.231628
     13          1           0      -22.703004  -10.768951  -29.294954
     14          1           0      -23.615622  -10.628627  -27.803388
     15          1           0      -22.003075  -11.315808  -27.785987
 ---------------------------------------------------------------------
                    Distance matrix (angstroms):
                    1          2          3          4          5
     1  O    0.000000
     2  C    1.238905   0.000000
     3  O    2.201010   1.247279   0.000000
     4  C    2.435433   1.548577   2.350374   0.000000
     5  C    3.245572   2.697569   3.584267   1.498614   0.000000
     6  O    4.087001   3.392749   3.988939   2.328377   1.232266
     7  C    3.881488   3.747307   4.834602   2.694332   1.510921
     8  H    3.253505   2.114786   2.348624   1.083031   2.092820
     9  H    2.737514   2.125012   2.976607   1.093702   2.088783
    10  H    4.567473   4.346153   5.395478   3.090510   2.141843
    11  H    4.659550   4.531846   5.552645   3.525508   2.104061
    12  C    3.456041   3.819509   5.048106   3.292102   2.594746
    13  H    4.473089   4.899265   6.132154   4.318032   3.505777
    14  H    3.143124   3.693562   4.881633   3.527576   2.868756
    15  H    3.031275   3.488921   4.727872   3.112438   2.912524
                    6          7          8          9         10
     6  O    0.000000
     7  C    2.332443   0.000000
     8  H    2.444673   3.461425   0.000000
     9  H    3.126566   2.784053   1.740021   0.000000
    10  H    2.933121   1.088461   3.719896   2.855210   0.000000
    11  H    2.388424   1.083527   4.170608   3.789748   1.736522
    12  C    3.575517   1.535171   4.297351   3.206520   2.138207
    13  H    4.384187   2.157773   5.288507   4.129111   2.448977
    14  H    3.680485   2.178575   4.547088   3.700884   3.051814
    15  H    4.071901   2.184061   4.155955   2.748077   2.501727
                   11         12         13         14         15
    11  H    0.000000
    12  C    2.138317   0.000000
    13  H    2.438323   1.088190   0.000000
    14  H    2.506648   1.083509   1.754233   0.000000
    15  H    3.052168   1.080249   1.750981   1.752948   0.000000
 Stoichiometry    C5H7O3(1-)
 Framework group  C1[X(C5H7O3)]
 Deg. of freedom    39
 Full point group                 C1      NOp   1
 Largest Abelian subgroup         C1      NOp   1
 Largest concise Abelian subgroup C1      NOp   1
                         Standard orientation:                         
 ---------------------------------------------------------------------
 Center     Atomic      Atomic             Coordinates (Angstroms)
 Number     Number       Type             X           Y           Z
 ---------------------------------------------------------------------
      1          8           0        1.467623    1.446482   -0.363109
      2          6           0        1.644495    0.280133    0.015349
      3          8           0        2.731119   -0.328566   -0.051294
      4          6           0        0.507765   -0.532216    0.683199
      5          6           0       -0.817767   -0.821303    0.046616
      6          8           0       -0.907353   -1.871800   -0.591278
      7          6           0       -2.087693   -0.013483    0.179271
      8          1           0        0.949159   -1.484187    0.951300
      9          1           0        0.291127   -0.021355    1.625683
     10          1           0       -2.522952   -0.166479    1.165116
     11          1           0       -2.800083   -0.416297   -0.530849
     12          6           0       -1.974585    1.498910   -0.058691
     13          1           0       -2.960091    1.953622    0.019879
     14          1           0       -1.588229    1.716286   -1.047361
     15          1           0       -1.333334    1.977241    0.667211
 ---------------------------------------------------------------------
 Rotational constants (GHZ):      3.0896571      1.4103111      1.0508088
 Standard basis: 6-31G(d) (6D, 7F)
 There are   134 symmetry adapted cartesian basis functions of A   symmetry.
 There are   134 symmetry adapted basis functions of A   symmetry.
   134 basis functions,   252 primitive gaussians,   134 cartesian basis functions
    31 alpha electrons       31 beta electrons
       nuclear repulsion energy       359.0676272365 Hartrees.
 NAtoms=   15 NActive=   15 NUniq=   15 SFac= 1.00D+00 NAtFMM=   60 NAOKFM=F Big=F
 Integral buffers will be    131072 words long.
 Raffenetti 1 integral format.
 Two-electron integral symmetry is turned on.
 ------------------------------------------------------------------------------
 Polarizable Continuum Model (PCM)
 =================================
 Model                : PCM (using non-symmetric T matrix).
 Atomic radii         : SMD-Coulomb.
 Polarization charges : Total charges.
 Charge compensation  : None.
 Solution method      : On-the-fly selection.
 Cavity type          : VdW (van der Waals Surface) (Alpha=1.000).
 Cavity algorithm     : GePol (No added spheres)
                        Default sphere list used, NSphG=   15.
                        Lebedev-Laikov grids with approx.  5.0 points / Ang**2.
                        Smoothing algorithm: York/Karplus (Gamma=1.0000).
                        Polarization charges: spherical gaussians, with
                                              point-specific exponents (IZeta= 3).
                        Self-potential: point-specific (ISelfS= 7).
                        Self-field    : sphere-specific E.n sum rule (ISelfD= 2).
 1st derivatives      : Analytical E(r).r(x)/FMM algorithm (CHGder, D1EAlg=3).
                        Cavity 1st derivative terms included.
 Solvent              : Water, Eps=  78.355300 Eps(inf)=   1.777849
 ------------------------------------------------------------------------------
 Spheres list:
 ISph  on   Nord     Re0    Alpha      Xe            Ye            Ze
    1   O      1    1.5200  1.000      1.467623      1.446482     -0.363109
    2   C      2    1.8500  1.000      1.644495      0.280133      0.015349
    3   O      3    1.5200  1.000      2.731119     -0.328566     -0.051294
    4   C      4    1.8500  1.000      0.507765     -0.532216      0.683199
    5   C      5    1.8500  1.000     -0.817767     -0.821303      0.046616
    6   O      6    1.5200  1.000     -0.907353     -1.871800     -0.591278
    7   C      7    1.8500  1.000     -2.087693     -0.013483      0.179271
    8   H      8    1.2000  1.000      0.949159     -1.484187      0.951300
    9   H      9    1.2000  1.000      0.291127     -0.021355      1.625683
   10   H     10    1.2000  1.000     -2.522952     -0.166479      1.165116
   11   H     11    1.2000  1.000     -2.800083     -0.416297     -0.530849
   12   C     12    1.8500  1.000     -1.974585      1.498910     -0.058691
   13   H     13    1.2000  1.000     -2.960091      1.953622      0.019879
   14   H     14    1.2000  1.000     -1.588229      1.716286     -1.047361
   15   H     15    1.2000  1.000     -1.333334      1.977241      0.667211
 ------------------------------------------------------------------------------
 ------------------------------------------------------------------------------
 Atomic radii for non-electrostatic terms: SMD-CDS.
 ------------------------------------------------------------------------------
 Nuclear repulsion after PCM non-electrostatic terms =      359.0763935829 Hartrees.
 One-electron integrals computed using PRISM.
 NBasis=   134 RedAO= T EigKep=  3.21D-03  NBF=   134
 NBsUse=   134 1.00D-06 EigRej= -1.00D+00 NBFU=   134
 Initial guess from the checkpoint file:  "3ov.chk"
 B after Tr=    -0.000000    0.000000    0.000000
         Rot=    0.998442   -0.001307    0.003522   -0.055673 Ang=  -6.40 deg.
 ExpMin= 1.61D-01 ExpMax= 5.48D+03 ExpMxC= 8.25D+02 IAcc=1 IRadAn=         1 AccDes= 0.00D+00
 Harris functional with IExCor=  205 and IRadAn=       1 diagonalized for initial guess.
 HarFok:  IExCor=  205 AccDes= 0.00D+00 IRadAn=         1 IDoV= 1 UseB2=F ITyADJ=14
 ICtDFT=  3500011 ScaDFX=  1.000000  1.000000  1.000000  1.000000
 FoFCou: FMM=F IPFlag=           0 FMFlag=      100000 FMFlg1=           0
         NFxFlg=           0 DoJE=T BraDBF=F KetDBF=T FulRan=T
         wScrn=  0.000000 ICntrl=     500 IOpCl=  0 I1Cent=   200000004 NGrid=           0
         NMat0=    1 NMatS0=      1 NMatT0=    0 NMatD0=    1 NMtDS0=    0 NMtDT0=    0
 Petite list used in FoFCou.
 Keep R1 ints in memory in canonical form, NReq=45566277.
 Requested convergence on RMS density matrix=1.00D-08 within 128 cycles.
 Requested convergence on MAX density matrix=1.00D-06.
 Requested convergence on             energy=1.00D-06.
 No special actions if energy rises.
 Inv3:  Mode=1 IEnd=     4262592.
 Iteration    1 A*A^-1 deviation from unit magnitude is 2.89D-15 for    875.
 Iteration    1 A*A^-1 deviation from orthogonality  is 3.48D-15 for   1169    353.
 Iteration    1 A^-1*A deviation from unit magnitude is 2.78D-15 for   1187.
 Iteration    1 A^-1*A deviation from orthogonality  is 7.56D-14 for    958    906.
 Error on total polarization charges =  0.03819
 SCF Done:  E(RHF) =  -418.146310497     A.U. after   15 cycles
            NFock= 15  Conv=0.33D-08     -V/T= 2.0019
 SMD-CDS (non-electrostatic) energy       (kcal/mol) =       5.50
 (included in total energy above)
 D1PCM: PCM CHGder 1st derivatives, ID1Alg=3 FixD1E=F DoIter=F DoCFld=F I1PDM=0.
 Calling FoFJK, ICntrl=      2127 FMM=F ISym2X=0 I1Cent= 0 IOpClX= 0 NMat=1 NMatS=1 NMatT=0.
 ***** Axes restored to original set *****
 -------------------------------------------------------------------
 Center     Atomic                   Forces (Hartrees/Bohr)
 Number     Number              X              Y              Z
 -------------------------------------------------------------------
      1        8           0.002882294    0.003820725   -0.011250763
      2        6          -0.008703394    0.007226319    0.012096507
      3        8           0.000460023   -0.002126644   -0.007572374
      4        6           0.027766445   -0.019090505   -0.001645124
      5        6          -0.028904327    0.050747095    0.005503622
      6        8           0.009365408   -0.030402017   -0.003966846
      7        6          -0.002720994   -0.015173313   -0.008023633
      8        1          -0.003639232    0.001726711   -0.004693396
      9        1          -0.002497556   -0.001185697    0.003114680
     10        1           0.002471617    0.001580133    0.006483528
     11        1           0.001438064    0.002412140    0.003975261
     12        6           0.000479319    0.000802519    0.000924176
     13        1           0.000666228    0.001552167    0.002489068
     14        1          -0.000662774    0.000046622    0.000767898
     15        1           0.001598878   -0.001936257    0.001797396
 -------------------------------------------------------------------
 Cartesian Forces:  Max     0.050747095 RMS     0.012060971

 GradGradGradGradGradGradGradGradGradGradGradGradGradGradGradGradGradGrad
 Berny optimization.
 Using GEDIIS/GDIIS optimizer.
 FormGI is forming the generalized inverse of G from B-inverse, IUseBI=4.
 Internal  Forces:  Max     0.032028118 RMS     0.008230972
 Search for a local minimum.
 Step number   2 out of a maximum of   75
 All quantities printed in internal units (Hartrees-Bohrs-Radians)
 Mixed Optimization -- RFO/linear search
 Update second derivatives using D2CorX and points    1    2
 DE= -2.44D-02 DEPred=-3.19D-02 R= 7.64D-01
 TightC=F SS=  1.41D+00  RLast= 4.14D-01 DXNew= 5.0454D-01 1.2410D+00
 Trust test= 7.64D-01 RLast= 4.14D-01 DXMaxT set to 5.05D-01
 ITU=  1  0
 Use linear search instead of GDIIS.
     Eigenvalues ---    0.00230   0.00242   0.00394   0.00820   0.01041
     Eigenvalues ---    0.01232   0.03734   0.04086   0.05395   0.05454
     Eigenvalues ---    0.05685   0.06166   0.09693   0.11770   0.13289
     Eigenvalues ---    0.13896   0.15982   0.16000   0.16004   0.18796
     Eigenvalues ---    0.23331   0.24776   0.24994   0.25000   0.27650
     Eigenvalues ---    0.29501   0.31203   0.33061   0.33654   0.33825
     Eigenvalues ---    0.33990   0.34261   0.34270   0.34346   0.35095
     Eigenvalues ---    0.41204   0.61105   0.73833   0.79179
 RFO step:  Lambda=-1.79190365D-02 EMin= 2.29916403D-03
 Quartic linear search produced a step of  0.06221.
 Iteration  1 RMS(Cart)=  0.11720621 RMS(Int)=  0.00538197
 Iteration  2 RMS(Cart)=  0.00807461 RMS(Int)=  0.00098760
 Iteration  3 RMS(Cart)=  0.00003406 RMS(Int)=  0.00098749
 Iteration  4 RMS(Cart)=  0.00000003 RMS(Int)=  0.00098749
 Variable       Old X    -DE/DX   Delta X   Delta X   Delta X     New X
                                 (Linear)    (Quad)   (Total)
    R1        2.34119  -0.00105  -0.00329  -0.02024  -0.02353   2.31766
    R2        2.35702  -0.00776  -0.00363  -0.03158  -0.03521   2.32180
    R3        2.92639  -0.00673  -0.00011  -0.02449  -0.02460   2.90179
    R4        2.83197   0.00357   0.00335   0.02854   0.03189   2.86386
    R5        2.04663  -0.00316  -0.00195  -0.02010  -0.02205   2.02458
    R6        2.06680  -0.00228  -0.00077  -0.01100  -0.01177   2.05503
    R7        2.32864  -0.03203  -0.00782  -0.09309  -0.10091   2.22773
    R8        2.85523  -0.00465   0.00173  -0.00457  -0.00284   2.85238
    R9        2.05689  -0.00067  -0.00111  -0.00810  -0.00922   2.04768
   R10        2.04757  -0.00122  -0.00122  -0.01029  -0.01150   2.03607
   R11        2.90105  -0.00194   0.00083  -0.00191  -0.00108   2.89998
   R12        2.05638  -0.00279  -0.00075  -0.01224  -0.01299   2.04339
   R13        2.04754   0.00091  -0.00133  -0.00473  -0.00606   2.04147
   R14        2.04137   0.00304  -0.00168  -0.00050  -0.00218   2.03919
    A1        2.17426   0.01009  -0.00137   0.03145   0.03002   2.20428
    A2        2.11859  -0.01828   0.00241  -0.05905  -0.05668   2.06190
    A3        1.98946   0.00817  -0.00078   0.02709   0.02626   2.01572
    A4        2.17398  -0.02948  -0.00061  -0.14019  -0.14159   2.03239
    A5        1.84283   0.01305  -0.00070   0.06405   0.05977   1.90260
    A6        1.84628   0.00490   0.00056   0.00688   0.00832   1.85460
    A7        1.87138   0.00424  -0.00421  -0.01147  -0.01663   1.85475
    A8        1.85558   0.01139   0.00484   0.06986   0.07435   1.92993
    A9        1.85248  -0.00120   0.00074   0.03355   0.03305   1.88553
   A10        2.03604   0.01290  -0.00304   0.03474   0.03163   2.06768
   A11        2.21804  -0.02875   0.00192  -0.10137  -0.09951   2.11853
   A12        2.02654   0.01584   0.00096   0.06783   0.06873   2.09527
   A13        1.91821  -0.00328  -0.00554  -0.07710  -0.08309   1.83512
   A14        1.87161  -0.00072  -0.00540  -0.03744  -0.04434   1.82727
   A15        2.03889  -0.00564   0.01052   0.02553   0.03631   2.07520
   A16        1.85295   0.00024   0.00114   0.02834   0.02625   1.87920
   A17        1.88424   0.00472  -0.00071   0.01938   0.01908   1.90332
   A18        1.88925   0.00523  -0.00038   0.04408   0.04374   1.93299
   A19        1.91107  -0.00140  -0.00062  -0.01081  -0.01143   1.89964
   A20        1.94481  -0.00009  -0.00009  -0.00131  -0.00141   1.94340
   A21        1.95606  -0.00004   0.00077   0.00345   0.00423   1.96029
   A22        1.88071   0.00082  -0.00001   0.00535   0.00532   1.88604
   A23        1.87974   0.00084  -0.00011   0.00491   0.00481   1.88455
   A24        1.88878  -0.00004   0.00004  -0.00116  -0.00113   1.88766
    D1        1.01679   0.00013   0.00312  -0.01370  -0.00934   1.00744
    D2       -3.09469  -0.00418  -0.00461  -0.07831  -0.08395   3.10454
    D3       -1.13545   0.00200  -0.00384  -0.01100  -0.01505  -1.15051
    D4       -2.16803  -0.00005   0.00671  -0.02511  -0.01715  -2.18519
    D5        0.00367  -0.00436  -0.00101  -0.08972  -0.09177  -0.08809
    D6        1.96291   0.00182  -0.00025  -0.02241  -0.02286   1.94005
    D7        1.60180   0.00143  -0.00442   0.00128  -0.00068   1.60112
    D8       -1.61999   0.00222  -0.00938   0.02378   0.01686  -1.60313
    D9       -0.55748   0.00236   0.00199   0.03555   0.03606  -0.52142
   D10        2.50392   0.00316  -0.00297   0.05805   0.05359   2.55751
   D11       -2.53324  -0.00345   0.00058  -0.02985  -0.03025  -2.56349
   D12        0.52816  -0.00266  -0.00439  -0.00736  -0.01272   0.51545
   D13       -1.28812  -0.00077   0.00101  -0.01410  -0.01165  -1.29977
   D14        2.98821   0.00101   0.00655   0.01223   0.01718   3.00539
   D15        0.86567  -0.00145   0.00382  -0.03330  -0.02931   0.83635
   D16        1.77366  -0.00008  -0.00393   0.00703   0.00453   1.77819
   D17       -0.23319   0.00170   0.00161   0.03336   0.03336  -0.19984
   D18       -2.35574  -0.00076  -0.00113  -0.01218  -0.01314  -2.36888
   D19        3.09519   0.00134  -0.00031   0.02524   0.02526   3.12045
   D20        1.01630   0.00128   0.00016   0.02639   0.02687   1.04316
   D21       -1.10323   0.00143  -0.00037   0.02639   0.02633  -1.07690
   D22       -1.01686  -0.00329  -0.00074  -0.04321  -0.04412  -1.06099
   D23       -3.09576  -0.00335  -0.00027  -0.04206  -0.04251  -3.13827
   D24        1.06790  -0.00320  -0.00080  -0.04206  -0.04305   1.02485
   D25        0.98191   0.00205   0.00003   0.02212   0.02202   1.00393
   D26       -1.09698   0.00199   0.00050   0.02327   0.02363  -1.07335
   D27        3.06667   0.00214  -0.00003   0.02327   0.02310   3.08977
         Item               Value     Threshold  Converged?
 Maximum Force            0.032028     0.000450     NO 
 RMS     Force            0.008231     0.000300     NO 
 Maximum Displacement     0.552522     0.001800     NO 
 RMS     Displacement     0.121362     0.001200     NO 
 Predicted change in Energy=-9.967051D-03
 GradGradGradGradGradGradGradGradGradGradGradGradGradGradGradGradGradGrad

                          Input orientation:                          
 ---------------------------------------------------------------------
 Center     Atomic      Atomic             Coordinates (Angstroms)
 Number     Number       Type             X           Y           Z
 ---------------------------------------------------------------------
      1          8           0      -22.813395  -11.089383  -25.139338
      2          6           0      -22.124051  -10.227651  -24.604169
      3          8           0      -22.034149  -10.013746  -23.397632
      4          6           0      -21.222741   -9.363137  -25.497588
      5          6           0      -21.912407   -8.583677  -26.599181
      6          8           0      -22.267676   -7.483014  -26.371043
      7          6           0      -22.075159   -9.158450  -27.985356
      8          1           0      -20.718301   -8.640078  -24.888863
      9          1           0      -20.474419  -10.033151  -25.914353
     10          1           0      -21.090507   -9.099179  -28.433803
     11          1           0      -22.711303   -8.456895  -28.499182
     12          6           0      -22.609385  -10.589044  -28.137026
     13          1           0      -22.680571  -10.825446  -29.189781
     14          1           0      -23.594001  -10.689144  -27.703940
     15          1           0      -21.962935  -11.319004  -27.674744
 ---------------------------------------------------------------------
                    Distance matrix (angstroms):
                    1          2          3          4          5
     1  O    0.000000
     2  C    1.226451   0.000000
     3  O    2.190379   1.228645   0.000000
     4  C    2.374542   1.535559   2.343393   0.000000
     5  C    3.036690   2.593746   3.508537   1.515487   0.000000
     6  O    3.849780   3.267340   3.911561   2.321567   1.178865
     7  C    3.517573   3.546549   4.666950   2.637708   1.509416
     8  H    3.232840   2.139527   2.417062   1.071364   2.086685
     9  H    2.680874   2.115585   2.960915   1.087474   2.153549
    10  H    4.216960   4.124047   5.204797   2.951020   2.075356
    11  H    4.269540   4.318746   5.376628   3.470829   2.065021
    12  C    3.045996   3.584304   4.808713   3.223703   2.621497
    13  H    4.061206   4.657780   5.884361   4.230355   3.510957
    14  H    2.710483   3.461547   4.629642   3.499879   2.912258
    15  H    2.684081   3.262735   4.472410   3.018826   2.939626
                    6          7          8          9         10
     6  O    0.000000
     7  C    2.334557   0.000000
     8  H    2.436436   3.420240   0.000000
     9  H    3.150800   2.759805   1.746929   0.000000
    10  H    2.872750   1.083585   3.593871   2.756719   0.000000
    11  H    2.382062   1.077439   4.127955   3.764249   1.744643
    12  C    3.589273   1.534601   4.233820   3.131673   2.148200
    13  H    4.391767   2.143838   5.208093   4.027812   2.465726
    14  H    3.716856   2.174650   4.515859   3.655782   3.054205
    15  H    4.062920   2.185651   4.060405   2.639710   2.502983
                   11         12         13         14         15
    11  H    0.000000
    12  C    2.165087   0.000000
    13  H    2.467369   1.081317   0.000000
    14  H    2.528735   1.080301   1.749473   0.000000
    15  H    3.071062   1.079095   1.747553   1.748700   0.000000
 Stoichiometry    C5H7O3(1-)
 Framework group  C1[X(C5H7O3)]
 Deg. of freedom    39
 Full point group                 C1      NOp   1
 Largest Abelian subgroup         C1      NOp   1
 Largest concise Abelian subgroup C1      NOp   1
                         Standard orientation:                         
 ---------------------------------------------------------------------
 Center     Atomic      Atomic             Coordinates (Angstroms)
 Number     Number       Type             X           Y           Z
 ---------------------------------------------------------------------
      1          8           0        1.190962    1.391827   -0.401199
      2          6           0        1.542965    0.290741    0.008543
      3          8           0        2.670264   -0.190501   -0.076139
      4          6           0        0.515322   -0.562509    0.766077
      5          6           0       -0.766254   -0.890233    0.026578
      6          8           0       -0.814628   -1.888315   -0.598893
      7          6           0       -1.988071   -0.011740    0.143840
      8          1           0        0.962562   -1.501727    1.022329
      9          1           0        0.298505   -0.029913    1.689079
     10          1           0       -2.393526   -0.220450    1.126796
     11          1           0       -2.677988   -0.404432   -0.584640
     12          6           0       -1.829012    1.505715   -0.020567
     13          1           0       -2.800811    1.970768    0.072052
     14          1           0       -1.429056    1.756229   -0.992333
     15          1           0       -1.182170    1.933590    0.729742
 ---------------------------------------------------------------------
 Rotational constants (GHZ):      3.0567616      1.5705967      1.1441082
 Standard basis: 6-31G(d) (6D, 7F)
 There are   134 symmetry adapted cartesian basis functions of A   symmetry.
 There are   134 symmetry adapted basis functions of A   symmetry.
   134 basis functions,   252 primitive gaussians,   134 cartesian basis functions
    31 alpha electrons       31 beta electrons
       nuclear repulsion energy       367.0938808845 Hartrees.
 NAtoms=   15 NActive=   15 NUniq=   15 SFac= 1.00D+00 NAtFMM=   60 NAOKFM=F Big=F
 Integral buffers will be    131072 words long.
 Raffenetti 1 integral format.
 Two-electron integral symmetry is turned on.
 ------------------------------------------------------------------------------
 Polarizable Continuum Model (PCM)
 =================================
 Model                : PCM (using non-symmetric T matrix).
 Atomic radii         : SMD-Coulomb.
 Polarization charges : Total charges.
 Charge compensation  : None.
 Solution method      : On-the-fly selection.
 Cavity type          : VdW (van der Waals Surface) (Alpha=1.000).
 Cavity algorithm     : GePol (No added spheres)
                        Default sphere list used, NSphG=   15.
                        Lebedev-Laikov grids with approx.  5.0 points / Ang**2.
                        Smoothing algorithm: York/Karplus (Gamma=1.0000).
                        Polarization charges: spherical gaussians, with
                                              point-specific exponents (IZeta= 3).
                        Self-potential: point-specific (ISelfS= 7).
                        Self-field    : sphere-specific E.n sum rule (ISelfD= 2).
 1st derivatives      : Analytical E(r).r(x)/FMM algorithm (CHGder, D1EAlg=3).
                        Cavity 1st derivative terms included.
 Solvent              : Water, Eps=  78.355300 Eps(inf)=   1.777849
 ------------------------------------------------------------------------------
 Spheres list:
 ISph  on   Nord     Re0    Alpha      Xe            Ye            Ze
    1   O      1    1.5200  1.000      1.190962      1.391827     -0.401199
    2   C      2    1.8500  1.000      1.542965      0.290741      0.008543
    3   O      3    1.5200  1.000      2.670264     -0.190501     -0.076139
    4   C      4    1.8500  1.000      0.515322     -0.562509      0.766077
    5   C      5    1.8500  1.000     -0.766254     -0.890233      0.026578
    6   O      6    1.5200  1.000     -0.814628     -1.888315     -0.598893
    7   C      7    1.8500  1.000     -1.988071     -0.011740      0.143840
    8   H      8    1.2000  1.000      0.962562     -1.501727      1.022329
    9   H      9    1.2000  1.000      0.298505     -0.029913      1.689079
   10   H     10    1.2000  1.000     -2.393526     -0.220450      1.126796
   11   H     11    1.2000  1.000     -2.677988     -0.404432     -0.584640
   12   C     12    1.8500  1.000     -1.829012      1.505715     -0.020567
   13   H     13    1.2000  1.000     -2.800811      1.970768      0.072052
   14   H     14    1.2000  1.000     -1.429056      1.756229     -0.992333
   15   H     15    1.2000  1.000     -1.182170      1.933590      0.729742
 ------------------------------------------------------------------------------
 ------------------------------------------------------------------------------
 Atomic radii for non-electrostatic terms: SMD-CDS.
 ------------------------------------------------------------------------------
 Nuclear repulsion after PCM non-electrostatic terms =      367.1026640695 Hartrees.
 One-electron integrals computed using PRISM.
 NBasis=   134 RedAO= T EigKep=  2.85D-03  NBF=   134
 NBsUse=   134 1.00D-06 EigRej= -1.00D+00 NBFU=   134
 Initial guess from the checkpoint file:  "3ov.chk"
 B after Tr=     0.000000   -0.000000   -0.000000
         Rot=    0.999932   -0.001518   -0.003170   -0.011101 Ang=  -1.33 deg.
 ExpMin= 1.61D-01 ExpMax= 5.48D+03 ExpMxC= 8.25D+02 IAcc=1 IRadAn=         1 AccDes= 0.00D+00
 Harris functional with IExCor=  205 and IRadAn=       1 diagonalized for initial guess.
 HarFok:  IExCor=  205 AccDes= 0.00D+00 IRadAn=         1 IDoV= 1 UseB2=F ITyADJ=14
 ICtDFT=  3500011 ScaDFX=  1.000000  1.000000  1.000000  1.000000
 FoFCou: FMM=F IPFlag=           0 FMFlag=      100000 FMFlg1=           0
         NFxFlg=           0 DoJE=T BraDBF=F KetDBF=T FulRan=T
         wScrn=  0.000000 ICntrl=     500 IOpCl=  0 I1Cent=   200000004 NGrid=           0
         NMat0=    1 NMatS0=      1 NMatT0=    0 NMatD0=    1 NMtDS0=    0 NMtDT0=    0
 Petite list used in FoFCou.
 Keep R1 ints in memory in canonical form, NReq=45520252.
 Requested convergence on RMS density matrix=1.00D-08 within 128 cycles.
 Requested convergence on MAX density matrix=1.00D-06.
 Requested convergence on             energy=1.00D-06.
 No special actions if energy rises.
 Inv3:  Mode=1 IEnd=     4127787.
 Iteration    1 A*A^-1 deviation from unit magnitude is 3.33D-15 for    400.
 Iteration    1 A*A^-1 deviation from orthogonality  is 3.14D-15 for    780    149.
 Iteration    1 A^-1*A deviation from unit magnitude is 3.44D-15 for   1171.
 Iteration    1 A^-1*A deviation from orthogonality  is 1.83D-10 for   1166   1157.
 Iteration    2 A*A^-1 deviation from unit magnitude is 2.33D-15 for    162.
 Iteration    2 A*A^-1 deviation from orthogonality  is 3.89D-15 for   1158    542.
 Iteration    2 A^-1*A deviation from unit magnitude is 8.88D-16 for    158.
 Iteration    2 A^-1*A deviation from orthogonality  is 4.48D-16 for   1152   1079.
 Error on total polarization charges =  0.03779
 SCF Done:  E(RHF) =  -418.151426389     A.U. after   14 cycles
            NFock= 14  Conv=0.49D-08     -V/T= 2.0009
 SMD-CDS (non-electrostatic) energy       (kcal/mol) =       5.51
 (included in total energy above)
 D1PCM: PCM CHGder 1st derivatives, ID1Alg=3 FixD1E=F DoIter=F DoCFld=F I1PDM=0.
 Calling FoFJK, ICntrl=      2127 FMM=F ISym2X=0 I1Cent= 0 IOpClX= 0 NMat=1 NMatS=1 NMatT=0.
 ***** Axes restored to original set *****
 -------------------------------------------------------------------
 Center     Atomic                   Forces (Hartrees/Bohr)
 Number     Number              X              Y              Z
 -------------------------------------------------------------------
      1        8          -0.014299786   -0.014222523   -0.007486569
      2        6           0.010949800    0.011768861   -0.005759028
      3        8          -0.000644502    0.002966969    0.021267509
      4        6           0.007006939   -0.006008533   -0.007432940
      5        6           0.011851063   -0.054207674   -0.002682964
      6        8          -0.018173006    0.051664390    0.008753449
      7        6          -0.000873273   -0.003038570    0.000002412
      8        1           0.003129880    0.004197882    0.004772996
      9        1          -0.001221724    0.000707161   -0.001961941
     10        1           0.003183871    0.000287186   -0.002345161
     11        1          -0.002269965    0.000849689   -0.005757652
     12        6           0.001015236    0.005871290    0.000547438
     13        1           0.000225774    0.000153242   -0.002799352
     14        1          -0.001477409   -0.000251301    0.000156852
     15        1           0.001597102   -0.000738068    0.000724950
 -------------------------------------------------------------------
 Cartesian Forces:  Max     0.054207674 RMS     0.013071557

 GradGradGradGradGradGradGradGradGradGradGradGradGradGradGradGradGradGrad
 Berny optimization.
 Using GEDIIS/GDIIS optimizer.
 FormGI is forming the generalized inverse of G from B-inverse, IUseBI=4.
 Internal  Forces:  Max     0.055403742 RMS     0.008299063
 Search for a local minimum.
 Step number   3 out of a maximum of   75
 All quantities printed in internal units (Hartrees-Bohrs-Radians)
 Mixed Optimization -- RFO/linear search
 Update second derivatives using D2CorX and points    2    3
 DE= -5.12D-03 DEPred=-9.97D-03 R= 5.13D-01
 TightC=F SS=  1.41D+00  RLast= 3.36D-01 DXNew= 8.4853D-01 1.0085D+00
 Trust test= 5.13D-01 RLast= 3.36D-01 DXMaxT set to 8.49D-01
 ITU=  1  1  0
 Use linear search instead of GDIIS.
     Eigenvalues ---    0.00231   0.00249   0.00394   0.00820   0.01041
     Eigenvalues ---    0.01257   0.03577   0.04797   0.05368   0.05415
     Eigenvalues ---    0.05748   0.06401   0.10426   0.10543   0.13382
     Eigenvalues ---    0.13878   0.15934   0.16000   0.16008   0.18510
     Eigenvalues ---    0.23308   0.24920   0.24995   0.25094   0.27689
     Eigenvalues ---    0.29653   0.31321   0.33594   0.33808   0.33961
     Eigenvalues ---    0.34068   0.34265   0.34303   0.34524   0.34814
     Eigenvalues ---    0.44542   0.73066   0.76238   0.86759
 RFO step:  Lambda=-6.43037550D-03 EMin= 2.30962625D-03
 Quartic linear search produced a step of -0.30363.
 Iteration  1 RMS(Cart)=  0.10807095 RMS(Int)=  0.00832538
 Iteration  2 RMS(Cart)=  0.01008081 RMS(Int)=  0.00159222
 Iteration  3 RMS(Cart)=  0.00004257 RMS(Int)=  0.00159193
 Iteration  4 RMS(Cart)=  0.00000005 RMS(Int)=  0.00159193
 Variable       Old X    -DE/DX   Delta X   Delta X   Delta X     New X
                                 (Linear)    (Quad)   (Total)
    R1        2.31766   0.02129   0.00715   0.01723   0.02438   2.34203
    R2        2.32180   0.02136   0.01069   0.01292   0.02362   2.34542
    R3        2.90179   0.00673   0.00747   0.00264   0.01011   2.91190
    R4        2.86386   0.00497  -0.00968   0.01619   0.00650   2.87036
    R5        2.02458   0.00702   0.00669   0.00799   0.01468   2.03927
    R6        2.05503  -0.00053   0.00357  -0.00515  -0.00158   2.05345
    R7        2.22773   0.05540   0.03064   0.02702   0.05766   2.28539
    R8        2.85238   0.00737   0.00086   0.00783   0.00869   2.86107
    R9        2.04768   0.00389   0.00280   0.00619   0.00899   2.05667
   R10        2.03607   0.00463   0.00349   0.00660   0.01010   2.04616
   R11        2.89998  -0.00501   0.00033  -0.01466  -0.01433   2.88564
   R12        2.04339   0.00268   0.00394   0.00039   0.00433   2.04773
   R13        2.04147   0.00143   0.00184   0.00380   0.00564   2.04712
   R14        2.03919   0.00177   0.00066   0.00781   0.00847   2.04767
    A1        2.20428  -0.00334  -0.00912   0.01621   0.00005   2.20433
    A2        2.06190   0.00194   0.01721  -0.03115  -0.02089   2.04101
    A3        2.01572   0.00152  -0.00797   0.02519   0.01027   2.02599
    A4        2.03239   0.00030   0.04299  -0.08012  -0.03721   1.99518
    A5        1.90260  -0.00383  -0.01815   0.00483  -0.01289   1.88971
    A6        1.85460   0.00400  -0.00253   0.03456   0.03191   1.88651
    A7        1.85475   0.00124   0.00505  -0.00897  -0.00439   1.85036
    A8        1.92993  -0.00233  -0.02258   0.03102   0.00888   1.93881
    A9        1.88553   0.00051  -0.01004   0.02493   0.01534   1.90088
   A10        2.06768   0.00034  -0.00960   0.02636   0.01476   2.08244
   A11        2.11853   0.00472   0.03021  -0.05245  -0.02414   2.09440
   A12        2.09527  -0.00519  -0.02087   0.02015  -0.00256   2.09271
   A13        1.83512  -0.00113   0.02523  -0.03978  -0.01461   1.82051
   A14        1.82727   0.00238   0.01346   0.01376   0.02766   1.85494
   A15        2.07520   0.00272  -0.01102  -0.00230  -0.01352   2.06167
   A16        1.87920  -0.00014  -0.00797   0.00323  -0.00372   1.87547
   A17        1.90332  -0.00075  -0.00579   0.00467  -0.00144   1.90188
   A18        1.93299  -0.00311  -0.01328   0.01867   0.00545   1.93844
   A19        1.89964  -0.00123   0.00347  -0.01135  -0.00789   1.89175
   A20        1.94340   0.00078   0.00043   0.00371   0.00415   1.94755
   A21        1.96029  -0.00079  -0.00129  -0.00267  -0.00397   1.95632
   A22        1.88604   0.00023  -0.00162   0.00349   0.00189   1.88793
   A23        1.88455   0.00069  -0.00146   0.00400   0.00250   1.88705
   A24        1.88766   0.00036   0.00034   0.00318   0.00352   1.89118
    D1        1.00744  -0.00096   0.00284  -0.15404  -0.15155   0.85590
    D2        3.10454  -0.00210   0.02549  -0.21713  -0.19075   2.91379
    D3       -1.15051  -0.00129   0.00457  -0.16739  -0.16228  -1.31279
    D4       -2.18519   0.00131   0.00521   0.04967   0.05381  -2.13138
    D5       -0.08809   0.00017   0.02786  -0.01343   0.01460  -0.07349
    D6        1.94005   0.00099   0.00694   0.03631   0.04307   1.98312
    D7        1.60112  -0.00425   0.00021  -0.08351  -0.08371   1.51741
    D8       -1.60313  -0.00685  -0.00512  -0.19193  -0.19787  -1.80101
    D9       -0.52142  -0.00044  -0.01095  -0.03092  -0.04138  -0.56280
   D10        2.55751  -0.00304  -0.01627  -0.13933  -0.15554   2.40197
   D11       -2.56349  -0.00054   0.00919  -0.07151  -0.06178  -2.62527
   D12        0.51545  -0.00314   0.00386  -0.17992  -0.17594   0.33951
   D13       -1.29977   0.00142   0.00354   0.07101   0.07375  -1.22601
   D14        3.00539   0.00106  -0.00522   0.07782   0.07274   3.07813
   D15        0.83635   0.00132   0.00890   0.04281   0.05143   0.88778
   D16        1.77819  -0.00102  -0.00138  -0.03893  -0.04048   1.73771
   D17       -0.19984  -0.00138  -0.01013  -0.03213  -0.04150  -0.24133
   D18       -2.36888  -0.00112   0.00399  -0.06713  -0.06280  -2.43168
   D19        3.12045   0.00116  -0.00767   0.03437   0.02657  -3.13617
   D20        1.04316   0.00118  -0.00816   0.03504   0.02676   1.06993
   D21       -1.07690   0.00071  -0.00800   0.03015   0.02205  -1.05485
   D22       -1.06099   0.00097   0.01340  -0.01718  -0.00369  -1.06468
   D23       -3.13827   0.00100   0.01291  -0.01651  -0.00350   3.14141
   D24        1.02485   0.00053   0.01307  -0.02140  -0.00821   1.01663
   D25        1.00393  -0.00152  -0.00669   0.00079  -0.00589   0.99804
   D26       -1.07335  -0.00149  -0.00717   0.00146  -0.00570  -1.07905
   D27        3.08977  -0.00197  -0.00701  -0.00343  -0.01041   3.07935
         Item               Value     Threshold  Converged?
 Maximum Force            0.055404     0.000450     NO 
 RMS     Force            0.008299     0.000300     NO 
 Maximum Displacement     0.354907     0.001800     NO 
 RMS     Displacement     0.109954     0.001200     NO 
 Predicted change in Energy=-5.179978D-03
 GradGradGradGradGradGradGradGradGradGradGradGradGradGradGradGradGradGrad

                          Input orientation:                          
 ---------------------------------------------------------------------
 Center     Atomic      Atomic             Coordinates (Angstroms)
 Number     Number       Type             X           Y           Z
 ---------------------------------------------------------------------
      1          8           0      -23.001203  -10.903484  -25.013689
      2          6           0      -22.095860  -10.207846  -24.531576
      3          8           0      -21.934650   -9.941262  -23.330169
      4          6           0      -21.212020   -9.426982  -25.523284
      5          6           0      -21.987020   -8.634777  -26.562001
      6          8           0      -22.350096   -7.511305  -26.300125
      7          6           0      -22.100742   -9.153564  -27.979804
      8          1           0      -20.635916   -8.704135  -24.966396
      9          1           0      -20.532071  -10.130752  -25.995685
     10          1           0      -21.098095   -9.042177  -28.388188
     11          1           0      -22.744690   -8.460135  -28.506022
     12          6           0      -22.562685  -10.594618  -28.184139
     13          1           0      -22.582106  -10.799786  -29.247972
     14          1           0      -23.559724  -10.753031  -27.791292
     15          1           0      -21.894121  -11.307144  -27.715658
 ---------------------------------------------------------------------
                    Distance matrix (angstroms):
                    1          2          3          4          5
     1  O    0.000000
     2  C    1.239351   0.000000
     3  O    2.213062   1.241142   0.000000
     4  C    2.375063   1.540911   2.365677   0.000000
     5  C    2.927947   2.570802   3.486314   1.518929   0.000000
     6  O    3.685884   3.234770   3.859783   2.359770   1.209377
     7  C    3.559619   3.605803   4.718809   2.626609   1.514014
     8  H    3.230164   2.140479   2.427845   1.079133   2.091948
     9  H    2.767317   2.143594   3.017964   1.086640   2.162298
    10  H    4.298084   4.150636   5.204972   2.892876   2.071502
    11  H    4.269911   4.389954   5.444203   3.490071   2.093748
    12  C    3.215501   3.702531   4.937846   3.204344   2.608390
    13  H    4.256237   4.778203   6.014703   4.199408   3.500833
    14  H    2.837192   3.614675   4.816788   3.523348   2.910594
    15  H    2.947746   3.374542   4.593450   2.967621   2.912232
[...]
 ! R8    R(5,7)                  1.5104         -DE/DX =    0.0                 !
 ! R9    R(7,10)                 1.0878         -DE/DX =    0.0                 !
 ! R10   R(7,11)                 1.0831         -DE/DX =    0.0                 !
 ! R11   R(7,12)                 1.5319         -DE/DX =    0.0                 !
 ! R12   R(12,13)                1.0843         -DE/DX =    0.0                 !
 ! R13   R(12,14)                1.0838         -DE/DX =    0.0                 !
 ! R14   R(12,15)                1.0843         -DE/DX =    0.0                 !
 ! A1    A(1,2,3)              126.1819         -DE/DX =    0.0                 !
 ! A2    A(1,2,4)              118.1383         -DE/DX =    0.0                 !
 ! A3    A(3,2,4)              115.6775         -DE/DX =    0.0                 !
 ! A4    A(2,4,5)              113.3468         -DE/DX =    0.0                 !
 ! A5    A(2,4,8)              107.4393         -DE/DX =    0.0                 !
 ! A6    A(2,4,9)              108.4638         -DE/DX =    0.0                 !
 ! A7    A(5,4,8)              108.1761         -DE/DX =    0.0                 !
 ! A8    A(5,4,9)              111.2894         -DE/DX =    0.0                 !
 ! A9    A(8,4,9)              107.9215         -DE/DX =    0.0                 !
 ! A10   A(4,5,6)              120.31           -DE/DX =    0.0                 !
 ! A11   A(4,5,7)              118.7301         -DE/DX =    0.0                 !
 ! A12   A(6,5,7)              120.931          -DE/DX =    0.0                 !
 ! A13   A(5,7,10)             106.6531         -DE/DX =    0.0                 !
 ! A14   A(5,7,11)             107.8025         -DE/DX =    0.0                 !
 ! A15   A(5,7,12)             114.5419         -DE/DX =    0.0                 !
 ! A16   A(10,7,11)            107.8784         -DE/DX =    0.0                 !
 ! A17   A(10,7,12)            109.2326         -DE/DX =    0.0                 !
 ! A18   A(11,7,12)            110.4734         -DE/DX =    0.0                 !
 ! A19   A(7,12,13)            109.4034         -DE/DX =    0.0                 !
 ! A20   A(7,12,14)            111.2548         -DE/DX =    0.0                 !
 ! A21   A(7,12,15)            111.9524         -DE/DX =    0.0                 !
 ! A22   A(13,12,14)           108.0478         -DE/DX =    0.0                 !
 ! A23   A(13,12,15)           107.7584         -DE/DX =    0.0                 !
 ! A24   A(14,12,15)           108.285          -DE/DX =    0.0                 !
 ! D1    D(1,2,4,5)             -5.244          -DE/DX =    0.0                 !
 ! D2    D(1,2,4,8)            114.2095         -DE/DX =    0.0                 !
 ! D3    D(1,2,4,9)           -129.3716         -DE/DX =    0.0                 !
 ! D4    D(3,2,4,5)            175.2715         -DE/DX =    0.0                 !
 ! D5    D(3,2,4,8)            -65.275          -DE/DX =    0.0                 !
 ! D6    D(3,2,4,9)             51.1438         -DE/DX =    0.0                 !
 ! D7    D(2,4,5,6)             84.7306         -DE/DX =    0.0                 !
 ! D8    D(2,4,5,7)            -97.2099         -DE/DX =    0.0                 !
 ! D9    D(8,4,5,6)            -34.3001         -DE/DX =    0.0                 !
 ! D10   D(8,4,5,7)            143.7593         -DE/DX =    0.0                 !
 ! D11   D(9,4,5,6)           -152.694          -DE/DX =    0.0                 !
 ! D12   D(9,4,5,7)             25.3654         -DE/DX =    0.0                 !
 ! D13   D(4,5,7,10)           -63.7567         -DE/DX =    0.0                 !
 ! D14   D(4,5,7,11)          -179.3897         -DE/DX =    0.0                 !
 ! D15   D(4,5,7,12)            57.211          -DE/DX =    0.0                 !
 ! D16   D(6,5,7,10)           114.2903         -DE/DX =    0.0                 !
 ! D17   D(6,5,7,11)            -1.3427         -DE/DX =    0.0                 !
 ! D18   D(6,5,7,12)          -124.7421         -DE/DX =    0.0                 !
 ! D19   D(5,7,12,13)         -179.2427         -DE/DX =    0.0                 !
 ! D20   D(5,7,12,14)           61.4532         -DE/DX =    0.0                 !
 ! D21   D(5,7,12,15)          -59.8616         -DE/DX =    0.0                 !
 ! D22   D(10,7,12,13)         -59.7074         -DE/DX =    0.0                 !
 ! D23   D(10,7,12,14)        -179.0115         -DE/DX =    0.0                 !
 ! D24   D(10,7,12,15)          59.6736         -DE/DX =    0.0                 !
 ! D25   D(11,7,12,13)          58.8032         -DE/DX =    0.0                 !
 ! D26   D(11,7,12,14)         -60.5009         -DE/DX =    0.0                 !
 ! D27   D(11,7,12,15)         178.1842         -DE/DX =    0.0                 !
 --------------------------------------------------------------------------------
 GradGradGradGradGradGradGradGradGradGradGradGradGradGradGradGradGradGrad

                          Input orientation:                          
 ---------------------------------------------------------------------
 Center     Atomic      Atomic             Coordinates (Angstroms)
 Number     Number       Type             X           Y           Z
 ---------------------------------------------------------------------
      1          8           0      -23.338487  -10.218221  -24.838218
      2          6           0      -22.111490  -10.213198  -24.651167
      3          8           0      -21.496838  -10.881994  -23.806687
      4          6           0      -21.249016   -9.291220  -25.526326
      5          6           0      -22.032942   -8.588300  -26.608823
      6          8           0      -22.615487   -7.559304  -26.368314
      7          6           0      -22.034728   -9.174349  -28.000923
      8          1           0      -20.817451   -8.536993  -24.877067
      9          1           0      -20.437911   -9.875014  -25.944162
     10          1           0      -21.008830   -9.128828  -28.359624
     11          1           0      -22.636046   -8.530157  -28.630636
     12          6           0      -22.533911  -10.620343  -28.081907
     13          1           0      -22.487840  -10.960267  -29.110552
     14          1           0      -23.561742  -10.700488  -27.747497
     15          1           0      -21.928282  -11.292326  -27.484097
 ---------------------------------------------------------------------
                    Distance matrix (angstroms):
                    1          2          3          4          5
     1  O    0.000000
     2  C    1.241183   0.000000
     3  O    2.212763   1.240254   0.000000
     4  C    2.387198   1.536166   2.355660   0.000000
     5  C    2.737907   2.545365   3.660656   1.510112   0.000000
     6  O    3.151787   3.200900   4.342070   2.361296   1.206663
     7  C    3.576613   3.507986   4.560372   2.598968   1.510430
     8  H    3.030455   2.129608   2.665766   1.084732   2.116372
     9  H    3.123178   2.141744   2.589234   1.083187   2.154421
    10  H    4.360548   4.018005   4.903159   2.848094   2.099113
    11  H    4.210157   4.352466   5.486293   3.484223   2.110650
    12  C    3.366090   3.480544   4.406981   3.154127   2.559325
    13  H    4.418945   4.537165   5.396220   4.143318   3.477328
    14  H    2.957419   3.453685   4.452724   3.502619   2.845197
    15  H    3.184816   3.037034   3.725300   2.880746   2.844084
                    6          7          8          9         10
     6  O    0.000000
     7  C    2.368769   0.000000
     8  H    2.532316   3.412691   0.000000
     9  H    3.206907   2.696483   1.753010   0.000000
    10  H    3.001677   1.087752   3.537668   2.591756   0.000000
    11  H    2.461927   1.083100   4.170925   3.722577   1.754903
    12  C    3.508991   1.531875   4.190177   3.085236   2.151189
    13  H    4.370666   2.150835   5.156050   3.925048   2.470938
    14  H    3.558733   2.173729   4.522301   3.700235   3.059767
    15  H    3.956347   2.182720   3.952520   2.569315   2.508518
                   11         12         13         14         15
    11  H    0.000000
    12  C    2.163426   0.000000
    13  H    2.481475   1.084334   0.000000
    14  H    2.519362   1.083831   1.754614   0.000000
    15  H    3.073281   1.084308   1.751777   1.757226   0.000000
 Stoichiometry    C5H7O3(1-)
 Framework group  C1[X(C5H7O3)]
 Deg. of freedom    39
 Full point group                 C1      NOp   1
 Largest Abelian subgroup         C1      NOp   1
 Largest concise Abelian subgroup C1      NOp   1
                         Standard orientation:                         
 ---------------------------------------------------------------------
 Center     Atomic      Atomic             Coordinates (Angstroms)
 Number     Number       Type             X           Y           Z
 ---------------------------------------------------------------------
      1          8           0        1.250310    0.276263   -1.263769
      2          6           0        1.529149    0.111179   -0.065632
      3          8           0        2.597935    0.414128    0.485865
      4          6           0        0.473275   -0.539209    0.840972
      5          6           0       -0.844795   -0.782557    0.145335
      6          8           0       -1.012943   -1.782959   -0.508087
      7          6           0       -1.955566    0.225746    0.321151
      8          1           0        0.867381   -1.496870    1.163786
      9          1           0        0.345689    0.081863    1.719202
     10          1           0       -2.219689    0.217752    1.376319
     11          1           0       -2.813414   -0.125554   -0.239018
     12          6           0       -1.590803    1.653614   -0.096914
     13          1           0       -2.438649    2.307196    0.075621
     14          1           0       -1.338066    1.702319   -1.149740
     15          1           0       -0.753236    2.041187    0.472291
 ---------------------------------------------------------------------
 Rotational constants (GHZ):      3.0721631      1.4927697      1.2620562

 **********************************************************************

            Population analysis using the SCF density.

 **********************************************************************

 Orbital symmetries:
       Occupied  (A) (A) (A) (A) (A) (A) (A) (A) (A) (A) (A) (A)
                 (A) (A) (A) (A) (A) (A) (A) (A) (A) (A) (A) (A)
                 (A) (A) (A) (A) (A) (A) (A)
       Virtual   (A) (A) (A) (A) (A) (A) (A) (A) (A) (A) (A) (A)
                 (A) (A) (A) (A) (A) (A) (A) (A) (A) (A) (A) (A)
                 (A) (A) (A) (A) (A) (A) (A) (A) (A) (A) (A) (A)
                 (A) (A) (A) (A) (A) (A) (A) (A) (A) (A) (A) (A)
                 (A) (A) (A) (A) (A) (A) (A) (A) (A) (A) (A) (A)
                 (A) (A) (A) (A) (A) (A) (A) (A) (A) (A) (A) (A)
                 (A) (A) (A) (A) (A) (A) (A) (A) (A) (A) (A) (A)
                 (A) (A) (A) (A) (A) (A) (A) (A) (A) (A) (A) (A)
                 (A) (A) (A) (A) (A) (A) (A)
 The electronic state is 1-A.
 Alpha  occ. eigenvalues --  -20.55334 -20.49622 -20.49197 -11.33660 -11.32955
 Alpha  occ. eigenvalues --  -11.22011 -11.21390 -11.21053  -1.39665  -1.38064
 Alpha  occ. eigenvalues --   -1.27363  -1.05798  -0.99583  -0.87878  -0.75406
 Alpha  occ. eigenvalues --   -0.70276  -0.65338  -0.64966  -0.63228  -0.60153
 Alpha  occ. eigenvalues --   -0.59086  -0.58089  -0.54179  -0.53474  -0.50621
 Alpha  occ. eigenvalues --   -0.49381  -0.48155  -0.42367  -0.40669  -0.40079
 Alpha  occ. eigenvalues --   -0.38754
 Alpha virt. eigenvalues --    0.16277   0.23762   0.25103   0.29977   0.30945
 Alpha virt. eigenvalues --    0.31518   0.33714   0.34984   0.37122   0.40030
 Alpha virt. eigenvalues --    0.42603   0.46745   0.49382   0.50773   0.55680
 Alpha virt. eigenvalues --    0.61326   0.72039   0.74890   0.76183   0.81233
 Alpha virt. eigenvalues --    0.84072   0.85266   0.87875   0.89432   0.92330
 Alpha virt. eigenvalues --    0.95458   0.96823   0.98702   1.00598   1.01269
 Alpha virt. eigenvalues --    1.06023   1.09698   1.10675   1.12583   1.14542
 Alpha virt. eigenvalues --    1.16222   1.17658   1.18933   1.19803   1.22566
 Alpha virt. eigenvalues --    1.24294   1.26327   1.28680   1.31967   1.32768
 Alpha virt. eigenvalues --    1.34941   1.36684   1.40458   1.43360   1.49653
 Alpha virt. eigenvalues --    1.60979   1.69841   1.72658   1.73565   1.76245
 Alpha virt. eigenvalues --    1.85553   1.87862   1.93212   1.96385   2.03666
 Alpha virt. eigenvalues --    2.07013   2.09141   2.12014   2.13408   2.14951
 Alpha virt. eigenvalues --    2.17688   2.18601   2.21792   2.26130   2.28681
 Alpha virt. eigenvalues --    2.30242   2.32419   2.34009   2.35963   2.40144
 Alpha virt. eigenvalues --    2.45975   2.55445   2.57708   2.61619   2.67880
 Alpha virt. eigenvalues --    2.70383   2.75489   2.78401   2.83039   2.87725
 Alpha virt. eigenvalues --    2.96063   2.98955   3.06445   3.12953   3.22777
 Alpha virt. eigenvalues --    3.29539   3.34450   3.36611   3.40998   3.57116
 Alpha virt. eigenvalues --    4.31103   4.46492   4.53375   4.64769   4.69124
 Alpha virt. eigenvalues --    4.78761   4.97889   5.01321
          Condensed to atoms (all electrons):
               1          2          3          4          5          6
     1  O    8.506114   0.512082  -0.090255  -0.137127   0.021950  -0.002620
     2  C    0.512082   3.919713   0.509809   0.345031  -0.032849   0.000673
     3  O   -0.090255   0.509809   8.522521  -0.116823   0.003458  -0.000016
     4  C   -0.137127   0.345031  -0.116823   5.586204   0.278276  -0.073993
     5  C    0.021950  -0.032849   0.003458   0.278276   4.441048   0.527456
     6  O   -0.002620   0.000673  -0.000016  -0.073993   0.527456   8.260731
     7  C   -0.002741   0.000411   0.000005  -0.082819   0.357819  -0.069977
     8  H    0.001556  -0.015676   0.000112   0.372318  -0.032227   0.002380
     9  H    0.001935  -0.019748   0.001817   0.367804  -0.032608   0.002556
    10  H   -0.000005   0.000226  -0.000001   0.001005  -0.034281   0.001458
    11  H    0.000012  -0.000134   0.000001   0.004832  -0.045645   0.004966
    12  C    0.002371  -0.000900  -0.000111   0.000815  -0.041198   0.001079
    13  H    0.000087   0.000078  -0.000000  -0.000326   0.004253  -0.000063
    14  H    0.002434   0.000214  -0.000001   0.000125  -0.002284   0.000378
    15  H   -0.000162  -0.000613   0.000061   0.001114  -0.004060   0.000024
               7          8          9         10         11         12
     1  O   -0.002741   0.001556   0.001935  -0.000005   0.000012   0.002371
     2  C    0.000411  -0.015676  -0.019748   0.000226  -0.000134  -0.000900
     3  O    0.000005   0.000112   0.001817  -0.000001   0.000001  -0.000111
     4  C   -0.082819   0.372318   0.367804   0.001005   0.004832   0.000815
     5  C    0.357819  -0.032227  -0.032608  -0.034281  -0.045645  -0.041198
     6  O   -0.069977   0.002380   0.002556   0.001458   0.004966   0.001079
     7  C    5.228555   0.002902   0.004864   0.384101   0.392894   0.306244
     8  H    0.002902   0.455836  -0.015535  -0.000322  -0.000094   0.000150
     9  H    0.004864  -0.015535   0.469222  -0.000388  -0.000031  -0.001482
    10  H    0.384101  -0.000322  -0.000388   0.496634  -0.020812  -0.034265
    11  H    0.392894  -0.000094  -0.000031  -0.020812   0.501370  -0.031970
    12  C    0.306244   0.000150  -0.001482  -0.034265  -0.031970   5.136594
    13  H   -0.034680   0.000003  -0.000004  -0.003887  -0.003486   0.392943
    14  H   -0.039634  -0.000018  -0.000041   0.003815  -0.001797   0.392718
    15  H   -0.035425   0.000046   0.000571  -0.002117   0.003361   0.392443
              13         14         15
     1  O    0.000087   0.002434  -0.000162
     2  C    0.000078   0.000214  -0.000613
     3  O   -0.000000  -0.000001   0.000061
     4  C   -0.000326   0.000125   0.001114
     5  C    0.004253  -0.002284  -0.004060
     6  O   -0.000063   0.000378   0.000024
     7  C   -0.034680  -0.039634  -0.035425
     8  H    0.000003  -0.000018   0.000046
     9  H   -0.000004  -0.000041   0.000571
    10  H   -0.003887   0.003815  -0.002117
    11  H   -0.003486  -0.001797   0.003361
    12  C    0.392943   0.392718   0.392443
    13  H    0.513007  -0.025850  -0.025732
    14  H   -0.025850   0.514894  -0.026686
    15  H   -0.025732  -0.026686   0.514537
 Mulliken charges:
               1
     1  O   -0.815630
     2  C    0.781683
     3  O   -0.830577
     4  C   -0.546435
     5  C    0.590891
     6  O   -0.655031
     7  C   -0.412517
     8  H    0.228572
     9  H    0.221069
    10  H    0.208840
    11  H    0.196534
    12  C   -0.515433
    13  H    0.183657
    14  H    0.181736
    15  H    0.182640
 Sum of Mulliken charges =  -1.00000
 Mulliken charges with hydrogens summed into heavy atoms:
               1
     1  O   -0.815630
     2  C    0.781683
     3  O   -0.830577
     4  C   -0.096794
     5  C    0.590891
     6  O   -0.655031
     7  C   -0.007144
    12  C    0.032600
 Electronic spatial extent (au):  <R**2>=           1022.8314
 Charge=             -1.0000 electrons
 Dipole moment (field-independent basis, Debye):
    X=             -9.6368    Y=              1.3270    Z=              5.2437  Tot=             11.0511
 Quadrupole moment (field-independent basis, Debye-Ang):
   XX=            -72.3743   YY=            -55.6416   ZZ=            -54.3986
   XY=            -10.1093   XZ=             -1.3739   YZ=             -2.6253
 Traceless Quadrupole moment (field-independent basis, Debye-Ang):
   XX=            -11.5694   YY=              5.1632   ZZ=              6.4063
   XY=            -10.1093   XZ=             -1.3739   YZ=             -2.6253
 Octapole moment (field-independent basis, Debye-Ang**2):
  XXX=            -66.9376  YYY=             10.7413  ZZZ=              8.1247  XYY=              7.8034
  XXY=             -8.6806  XXZ=             -3.7247  XZZ=             -9.8948  YZZ=             -2.1386
  YYZ=              6.4899  XYZ=              2.5047
 Hexadecapole moment (field-independent basis, Debye-Ang**3):
 XXXX=           -932.7308 YYYY=           -370.5853 ZZZZ=           -185.2834 XXXY=            -35.2737
 XXXZ=            -28.1155 YYYX=            -13.7610 YYYZ=             -8.8395 ZZZX=              7.1980
 ZZZY=              3.1232 XXYY=           -194.4710 XXZZ=           -174.3874 YYZZ=            -88.9181
 XXYZ=             -4.7697 YYXZ=             -5.2142 ZZXY=             -2.9465
 N-N= 3.679040296715D+02 E-N=-1.731664892734D+03  KE= 4.174973471525D+02
 1\1\NSC-N120\FOpt\RHF\6-31G(d)\C5H7O3(1-)\X_GABOA\12-Dec-2022\0\\#HF/6
 -31G* scrf=smd opt\\remark line goes here\\-1,1\O,-23.3384870098,-10.2
 182208616,-24.8382179562\C,-22.1114896613,-10.21319752,-24.6511670145\
 O,-21.4968384274,-10.8819940821,-23.8066874574\C,-21.2490161093,-9.291
 21959,-25.5263256018\C,-22.0329415768,-8.5882998078,-26.6088233851\O,-
 22.6154866937,-7.5593036895,-26.3683135824\C,-22.0347277108,-9.1743490
 818,-28.0009230621\H,-20.8174511518,-8.5369929377,-24.8770669289\H,-20
 .4379112777,-9.8750142055,-25.9441621389\H,-21.0088302704,-9.128827501
 9,-28.3596235158\H,-22.636045682,-8.5301570711,-28.6306363615\C,-22.53
 39105919,-10.6203427824,-28.08190712\H,-22.4878397156,-10.9602670747,-
 29.1105519488\H,-23.5617418769,-10.7004877257,-27.7474969144\H,-21.928
 2822447,-11.2923260681,-27.4840970122\\Version=ES64L-G09RevE.01\State=
 1-A\HF=-418.1605235\RMSD=6.849e-09\RMSF=1.491e-05\Dipole=1.6822705,0.6
 778935,-3.9514523\Quadrupole=4.9021317,-2.4883957,-2.413736,2.8746474,
 -0.6412378,9.5052008\PG=C01 [X(C5H7O3)]\\@


 MICRO CREDO - NEVER TRUST A COMPUTER BIGGER
               BIGGER THAN YOU CAN LIFT.
 Job cpu time:       0 days  0 hours 24 minutes 15.8 seconds.
 File lengths (MBytes):  RWF=     59 Int=      0 D2E=      0 Chk=      8 Scr=      1
 Normal termination of Gaussian 09 at Mon Dec 12 11:35:38 2022.
