 Entering Gaussian System, Link 0=/software/sse/easybuild/prefix/software/Gaussian/09.E.01-avx-nsc1-bdist/g09/g09.orig
 Input=3ov_gesp.wrap
 Output=3ov_gesp.log
 Initial command:
 /software/sse/easybuild/prefix/software/Gaussian/09.E.01-avx-nsc1-bdist/g09/l1.exe "/scratch/local/Gau-91039.inp" -scrdir="/scratch/local/"
 Entering Link 1 = /software/sse/easybuild/prefix/software/Gaussian/09.E.01-avx-nsc1-bdist/g09/l1.exe PID=     91040.
  
 Copyright (c) 1988,1990,1992,1993,1995,1998,2003,2009,2015,
            Gaussian, Inc.  All Rights Reserved.
  
 This is part of the Gaussian(R) 09 program.  It is based on
 the Gaussian(R) 03 system (copyright 2003, Gaussian, Inc.),
 the Gaussian(R) 98 system (copyright 1998, Gaussian, Inc.),
 the Gaussian(R) 94 system (copyright 1995, Gaussian, Inc.),
 the Gaussian 92(TM) system (copyright 1992, Gaussian, Inc.),
 the Gaussian 90(TM) system (copyright 1990, Gaussian, Inc.),
 the Gaussian 88(TM) system (copyright 1988, Gaussian, Inc.),
 the Gaussian 86(TM) system (copyright 1986, Carnegie Mellon
 University), and the Gaussian 82(TM) system (copyright 1983,
 Carnegie Mellon University). Gaussian is a federally registered
 trademark of Gaussian, Inc.
  
 This software contains proprietary and confidential information,
 including trade secrets, belonging to Gaussian, Inc.
  
 This software is provided under written license and may be
 used, copied, transmitted, or stored only in accord with that
 written license.
  
 The following legend is applicable only to US Government
 contracts under FAR:
  
                    RESTRICTED RIGHTS LEGEND
  
 Use, reproduction and disclosure by the US Government is
 subject to restrictions as set forth in subparagraphs (a)
 and (c) of the Commercial Computer Software - Restricted
 Rights clause in FAR 52.227-19.
  
 Gaussian, Inc.
 340 Quinnipiac St., Bldg. 40, Wallingford CT 06492
  
  
 ---------------------------------------------------------------
 Warning -- This program may not be used in any manner that
 competes with the business of Gaussian, Inc. or will provide
 assistance to any competitor of Gaussian, Inc.  The licensee
 of this program is prohibited from giving any competitor of
 Gaussian, Inc. access to this program.  By using this program,
 the user acknowledges that Gaussian, Inc. is engaged in the
 business of creating and licensing software in the field of
 computational chemistry and represents and warrants to the
 licensee that it is not a competitor of Gaussian, Inc. and that
 it will not use this program in any manner prohibited above.
 ---------------------------------------------------------------
  

 Cite this work as:
 Gaussian 09, Revision E.01,
 M. J. Frisch, G. W. Trucks, H. B. Schlegel, G. E. Scuseria, 
 M. A. Robb, J. R. Cheeseman, G. Scalmani, V. Barone, B. Mennucci, 
 G. A. Petersson, H. Nakatsuji, M. Caricato, X. Li, H. P. Hratchian, 
 A. F. Izmaylov, J. Bloino, G. Zheng, J. L. Sonnenberg, M. Hada, 
 M. Ehara, K. Toyota, R. Fukuda, J. Hasegawa, M. Ishida, T. Nakajima, 
 Y. Honda, O. Kitao, H. Nakai, T. Vreven, J. A. Montgomery, Jr., 
 J. E. Peralta, F. Ogliaro, M. Bearpark, J. J. Heyd, E. Brothers, 
 K. N. Kudin, V. N. Staroverov, T. Keith, R. Kobayashi, J. Normand, 
 K. Raghavachari, A. Rendell, J. C. Burant, S. S. Iyengar, J. Tomasi, 
 M. Cossi, N. Rega, J. M. Millam, M. Klene, J. E. Knox, J. B. Cross, 
 V. Bakken, C. Adamo, J. Jaramillo, R. Gomperts, R. E. Stratmann, 
 O. Yazyev, A. J. Austin, R. Cammi, C. Pomelli, J. W. Ochterski, 
 R. L. Martin, K. Morokuma, V. G. Zakrzewski, G. A. Voth, 
 P. Salvador, J. J. Dannenberg, S. Dapprich, A. D. Daniels, 
 O. Farkas, J. B. Foresman, J. V. Ortiz, J. Cioslowski, 
 and D. J. Fox, Gaussian, Inc., Wallingford CT, 2013.
 
 ******************************************
 Gaussian 09:  ES64L-G09RevE.01 30-Nov-2015
                12-Dec-2022 
 ******************************************
 %chk=3ov_gesp
 ----------------------------------------------------------------------
 #HF/6-31G* scrf=smd SCF=tight Test Pop=MK iop(6/33=2) iop(6/42=6) # io
 p(6/50=1)
 ----------------------------------------------------------------------
 1/38=1/1;
 2/12=2,17=6,18=5,40=1/2;
 3/5=1,6=6,7=1,11=9,16=1,25=1,30=1,70=32201,72=1/1,2,3;
 4//1;
 5/5=2,32=2,38=5/2;
 6/7=2,8=2,9=2,10=2,15=8,20=1,28=1,33=2,42=6,50=1/1,2;
 99/5=1,9=1/99;
 -----------------
 calc RESP charges
 -----------------
 Symbolic Z-matrix:
 Charge = -1 Multiplicity = 1
 O                     1.25031   0.27626  -1.26377 
 C                     1.52915   0.11118  -0.06563 
 O                     2.59794   0.41413   0.48587 
 C                     0.47328  -0.53921   0.84097 
 C                    -0.8448   -0.78256   0.14534 
 O                    -1.01294  -1.78296  -0.50809 
 C                    -1.95557   0.22575   0.32115 
 H                     0.86738  -1.49687   1.16379 
 H                     0.34569   0.08186   1.7192 
 H                    -2.21969   0.21775   1.37632 
 H                    -2.81341  -0.12555  -0.23902 
 C                    -1.5908    1.65361  -0.09691 
 H                    -2.43865   2.3072    0.07562 
 H                    -1.33807   1.70232  -1.14974 
 H                    -0.75324   2.04119   0.47229 
 
                          Input orientation:                          
 ---------------------------------------------------------------------
 Center     Atomic      Atomic             Coordinates (Angstroms)
 Number     Number       Type             X           Y           Z
 ---------------------------------------------------------------------
      1          8           0        1.250310    0.276263   -1.263769
      2          6           0        1.529149    0.111179   -0.065632
      3          8           0        2.597935    0.414128    0.485865
      4          6           0        0.473275   -0.539209    0.840972
      5          6           0       -0.844795   -0.782557    0.145335
      6          8           0       -1.012943   -1.782959   -0.508087
      7          6           0       -1.955566    0.225746    0.321151
      8          1           0        0.867381   -1.496870    1.163786
      9          1           0        0.345689    0.081863    1.719202
     10          1           0       -2.219689    0.217752    1.376319
     11          1           0       -2.813414   -0.125554   -0.239018
     12          6           0       -1.590803    1.653614   -0.096914
     13          1           0       -2.438649    2.307196    0.075621
     14          1           0       -1.338066    1.702319   -1.149740
     15          1           0       -0.753236    2.041187    0.472291
 ---------------------------------------------------------------------
                    Distance matrix (angstroms):
                    1          2          3          4          5
     1  O    0.000000
     2  C    1.241183   0.000000
     3  O    2.212763   1.240254   0.000000
     4  C    2.387198   1.536166   2.355660   0.000000
     5  C    2.737908   2.545365   3.660656   1.510112   0.000000
     6  O    3.151788   3.200899   4.342070   2.361296   1.206664
     7  C    3.576614   3.507986   4.560372   2.598969   1.510430
     8  H    3.030455   2.129607   2.665766   1.084732   2.116372
     9  H    3.123179   2.141744   2.589234   1.083188   2.154421
    10  H    4.360548   4.018005   4.903159   2.848094   2.099112
    11  H    4.210157   4.352466   5.486293   3.484224   2.110649
    12  C    3.366091   3.480544   4.406981   3.154128   2.559324
    13  H    4.418945   4.537165   5.396220   4.143318   3.477327
    14  H    2.957419   3.453685   4.452723   3.502619   2.845197
    15  H    3.184817   3.037034   3.725299   2.880746   2.844084
                    6          7          8          9         10
     6  O    0.000000
     7  C    2.368770   0.000000
     8  H    2.532316   3.412692   0.000000
     9  H    3.206908   2.696484   1.753011   0.000000
    10  H    3.001677   1.087752   3.537669   2.591756   0.000000
    11  H    2.461927   1.083099   4.170925   3.722577   1.754902
    12  C    3.508991   1.531874   4.190177   3.085236   2.151189
    13  H    4.370666   2.150834   5.156050   3.925048   2.470938
    14  H    3.558734   2.173728   4.522301   3.700235   3.059767
    15  H    3.956347   2.182720   3.952520   2.569314   2.508519
                   11         12         13         14         15
    11  H    0.000000
    12  C    2.163426   0.000000
    13  H    2.481475   1.084334   0.000000
    14  H    2.519362   1.083832   1.754614   0.000000
    15  H    3.073282   1.084309   1.751778   1.757226   0.000000
 Stoichiometry    C5H7O3(1-)
 Framework group  C1[X(C5H7O3)]
 Deg. of freedom    39
 Full point group                 C1      NOp   1
 Largest Abelian subgroup         C1      NOp   1
 Largest concise Abelian subgroup C1      NOp   1
                         Standard orientation:                         
 ---------------------------------------------------------------------
 Center     Atomic      Atomic             Coordinates (Angstroms)
 Number     Number       Type             X           Y           Z
 ---------------------------------------------------------------------
      1          8           0       -1.250310    0.276263    1.263769
      2          6           0       -1.529149    0.111179    0.065632
      3          8           0       -2.597935    0.414129   -0.485865
      4          6           0       -0.473275   -0.539209   -0.840972
      5          6           0        0.844795   -0.782557   -0.145335
      6          8           0        1.012943   -1.782959    0.508087
      7          6           0        1.955566    0.225746   -0.321151
      8          1           0       -0.867381   -1.496870   -1.163786
      9          1           0       -0.345689    0.081863   -1.719202
     10          1           0        2.219689    0.217752   -1.376319
     11          1           0        2.813414   -0.125554    0.239018
     12          6           0        1.590803    1.653614    0.096914
     13          1           0        2.438649    2.307196   -0.075621
     14          1           0        1.338066    1.702319    1.149740
     15          1           0        0.753236    2.041187   -0.472291
 ---------------------------------------------------------------------
 Rotational constants (GHZ):      3.0721628      1.4927696      1.2620561
 Standard basis: 6-31G(d) (6D, 7F)
 There are   134 symmetry adapted cartesian basis functions of A   symmetry.
 There are   134 symmetry adapted basis functions of A   symmetry.
   134 basis functions,   252 primitive gaussians,   134 cartesian basis functions
    31 alpha electrons       31 beta electrons
       nuclear repulsion energy       367.8954233051 Hartrees.
 NAtoms=   15 NActive=   15 NUniq=   15 SFac= 1.00D+00 NAtFMM=   60 NAOKFM=F Big=F
 Integral buffers will be    131072 words long.
 Raffenetti 1 integral format.
 Two-electron integral symmetry is turned on.
 ------------------------------------------------------------------------------
 Polarizable Continuum Model (PCM)
 =================================
 Model                : PCM (using non-symmetric T matrix).
 Atomic radii         : SMD-Coulomb.
 Polarization charges : Total charges.
 Charge compensation  : None.
 Solution method      : On-the-fly selection.
 Cavity type          : VdW (van der Waals Surface) (Alpha=1.000).
 Cavity algorithm     : GePol (No added spheres)
                        Default sphere list used, NSphG=   15.
                        Lebedev-Laikov grids with approx.  5.0 points / Ang**2.
                        Smoothing algorithm: York/Karplus (Gamma=1.0000).
                        Polarization charges: spherical gaussians, with
                                              point-specific exponents (IZeta= 3).
                        Self-potential: point-specific (ISelfS= 7).
                        Self-field    : sphere-specific E.n sum rule (ISelfD= 2).
 Solvent              : Water, Eps=  78.355300 Eps(inf)=   1.777849
 ------------------------------------------------------------------------------
 Spheres list:
 ISph  on   Nord     Re0    Alpha      Xe            Ye            Ze
    1   O      1    1.5200  1.000     -1.250310      0.276263      1.263769
    2   C      2    1.8500  1.000     -1.529149      0.111179      0.065632
    3   O      3    1.5200  1.000     -2.597935      0.414129     -0.485865
    4   C      4    1.8500  1.000     -0.473275     -0.539209     -0.840972
    5   C      5    1.8500  1.000      0.844795     -0.782557     -0.145335
    6   O      6    1.5200  1.000      1.012943     -1.782959      0.508087
    7   C      7    1.8500  1.000      1.955566      0.225746     -0.321151
    8   H      8    1.2000  1.000     -0.867381     -1.496870     -1.163786
    9   H      9    1.2000  1.000     -0.345689      0.081863     -1.719202
   10   H     10    1.2000  1.000      2.219689      0.217752     -1.376319
   11   H     11    1.2000  1.000      2.813414     -0.125554      0.239018
   12   C     12    1.8500  1.000      1.590803      1.653614      0.096914
   13   H     13    1.2000  1.000      2.438649      2.307196     -0.075621
   14   H     14    1.2000  1.000      1.338066      1.702319      1.149740
   15   H     15    1.2000  1.000      0.753236      2.041187     -0.472291
 ------------------------------------------------------------------------------
 ------------------------------------------------------------------------------
 Atomic radii for non-electrostatic terms: SMD-CDS.
 ------------------------------------------------------------------------------
 Nuclear repulsion after PCM non-electrostatic terms =      367.9040133078 Hartrees.
 One-electron integrals computed using PRISM.
 NBasis=   134 RedAO= T EigKep=  2.93D-03  NBF=   134
 NBsUse=   134 1.00D-06 EigRej= -1.00D+00 NBFU=   134
 ExpMin= 1.61D-01 ExpMax= 5.48D+03 ExpMxC= 8.25D+02 IAcc=1 IRadAn=         1 AccDes= 0.00D+00
 Harris functional with IExCor=  205 and IRadAn=       1 diagonalized for initial guess.
 HarFok:  IExCor=  205 AccDes= 0.00D+00 IRadAn=         1 IDoV= 1 UseB2=F ITyADJ=14
 ICtDFT=  3500011 ScaDFX=  1.000000  1.000000  1.000000  1.000000
 FoFCou: FMM=F IPFlag=           0 FMFlag=      100000 FMFlg1=           0
         NFxFlg=           0 DoJE=T BraDBF=F KetDBF=T FulRan=T
         wScrn=  0.000000 ICntrl=     500 IOpCl=  0 I1Cent=   200000004 NGrid=           0
         NMat0=    1 NMatS0=      1 NMatT0=    0 NMatD0=    1 NMtDS0=    0 NMtDT0=    0
 Petite list used in FoFCou.
 Keep R1 ints in memory in canonical form, NReq=45549738.
 Requested convergence on RMS density matrix=1.00D-08 within 128 cycles.
 Requested convergence on MAX density matrix=1.00D-06.
 Requested convergence on             energy=1.00D-06.
 No special actions if energy rises.
 Inv3:  Mode=1 IEnd=     4212675.
 Iteration    1 A*A^-1 deviation from unit magnitude is 4.22D-15 for   1184.
 Iteration    1 A*A^-1 deviation from orthogonality  is 2.58D-15 for   1176    419.
 Iteration    1 A^-1*A deviation from unit magnitude is 4.22D-15 for   1184.
 Iteration    1 A^-1*A deviation from orthogonality  is 1.00D-10 for   1161   1102.
 Iteration    2 A*A^-1 deviation from unit magnitude is 2.55D-15 for    826.
 Iteration    2 A*A^-1 deviation from orthogonality  is 4.49D-15 for   1176    419.
 Iteration    2 A^-1*A deviation from unit magnitude is 8.88D-16 for    164.
 Iteration    2 A^-1*A deviation from orthogonality  is 7.52D-16 for   1153    153.
 Error on total polarization charges =  0.03776
 SCF Done:  E(RHF) =  -418.160523524     A.U. after   14 cycles
            NFock= 14  Conv=0.76D-08     -V/T= 2.0016
 SMD-CDS (non-electrostatic) energy       (kcal/mol) =       5.39
 (included in total energy above)

 **********************************************************************

            Population analysis using the SCF density.

 **********************************************************************

 Orbital symmetries:
 BldTbl:  Degeneracy threshold= 1.00D-02
       Occupied  (A) (A) (A) (A) (A) (A) (A) (A) (A) (A) (A) (A)
                 (A) (A) (A) (A) (A) (A) (A) (A) (A) (A) (A) (A)
                 (A) (A) (A) (A) (A) (A) (A)
       Virtual   (A) (A) (A) (A) (A) (A) (A) (A) (A) (A) (A) (A)
                 (A) (A) (A) (A) (A) (A) (A) (A) (A) (A) (A) (A)
                 (A) (A) (A) (A) (A) (A) (A) (A) (A) (A) (A) (A)
                 (A) (A) (A) (A) (A) (A) (A) (A) (A) (A) (A) (A)
                 (A) (A) (A) (A) (A) (A) (A) (A) (A) (A) (A) (A)
                 (A) (A) (A) (A) (A) (A) (A) (A) (A) (A) (A) (A)
                 (A) (A) (A) (A) (A) (A) (A) (A) (A) (A) (A) (A)
                 (A) (A) (A) (A) (A) (A) (A) (A) (A) (A) (A) (A)
                 (A) (A) (A) (A) (A) (A) (A)
 The electronic state is 1-A.
 Alpha  occ. eigenvalues --  -20.55334 -20.49622 -20.49197 -11.33660 -11.32955
 Alpha  occ. eigenvalues --  -11.22011 -11.21390 -11.21053  -1.39665  -1.38064
 Alpha  occ. eigenvalues --   -1.27363  -1.05798  -0.99583  -0.87878  -0.75406
 Alpha  occ. eigenvalues --   -0.70276  -0.65338  -0.64966  -0.63228  -0.60153
 Alpha  occ. eigenvalues --   -0.59086  -0.58089  -0.54179  -0.53474  -0.50621
 Alpha  occ. eigenvalues --   -0.49381  -0.48155  -0.42367  -0.40669  -0.40079
 Alpha  occ. eigenvalues --   -0.38754
 Alpha virt. eigenvalues --    0.16277   0.23762   0.25103   0.29977   0.30945
 Alpha virt. eigenvalues --    0.31518   0.33714   0.34984   0.37122   0.40030
 Alpha virt. eigenvalues --    0.42603   0.46745   0.49382   0.50773   0.55680
 Alpha virt. eigenvalues --    0.61326   0.72039   0.74890   0.76183   0.81233
 Alpha virt. eigenvalues --    0.84072   0.85266   0.87875   0.89432   0.92330
 Alpha virt. eigenvalues --    0.95458   0.96823   0.98702   1.00598   1.01269
 Alpha virt. eigenvalues --    1.06023   1.09698   1.10675   1.12583   1.14542
 Alpha virt. eigenvalues --    1.16222   1.17658   1.18933   1.19803   1.22566
 Alpha virt. eigenvalues --    1.24294   1.26327   1.28680   1.31967   1.32768
 Alpha virt. eigenvalues --    1.34941   1.36684   1.40458   1.43360   1.49653
 Alpha virt. eigenvalues --    1.60979   1.69841   1.72658   1.73565   1.76245
 Alpha virt. eigenvalues --    1.85553   1.87862   1.93212   1.96385   2.03666
 Alpha virt. eigenvalues --    2.07013   2.09141   2.12014   2.13408   2.14951
 Alpha virt. eigenvalues --    2.17688   2.18601   2.21792   2.26130   2.28681
 Alpha virt. eigenvalues --    2.30242   2.32419   2.34009   2.35963   2.40144
 Alpha virt. eigenvalues --    2.45975   2.55445   2.57708   2.61619   2.67880
 Alpha virt. eigenvalues --    2.70383   2.75489   2.78401   2.83039   2.87725
 Alpha virt. eigenvalues --    2.96063   2.98955   3.06445   3.12953   3.22777
 Alpha virt. eigenvalues --    3.29539   3.34450   3.36611   3.40997   3.57116
 Alpha virt. eigenvalues --    4.31103   4.46492   4.53375   4.64769   4.69124
 Alpha virt. eigenvalues --    4.78761   4.97889   5.01321
          Condensed to atoms (all electrons):
               1          2          3          4          5          6
     1  O    8.506114   0.512082  -0.090256  -0.137127   0.021950  -0.002620
     2  C    0.512082   3.919713   0.509809   0.345031  -0.032849   0.000673
     3  O   -0.090256   0.509809   8.522521  -0.116823   0.003458  -0.000016
     4  C   -0.137127   0.345031  -0.116823   5.586204   0.278276  -0.073993
     5  C    0.021950  -0.032849   0.003458   0.278276   4.441049   0.527456
     6  O   -0.002620   0.000673  -0.000016  -0.073993   0.527456   8.260732
     7  C   -0.002741   0.000411   0.000005  -0.082819   0.357819  -0.069977
     8  H    0.001556  -0.015676   0.000112   0.372318  -0.032227   0.002380
     9  H    0.001935  -0.019748   0.001817   0.367804  -0.032608   0.002556
    10  H   -0.000005   0.000226  -0.000001   0.001005  -0.034281   0.001458
    11  H    0.000012  -0.000134   0.000001   0.004832  -0.045644   0.004966
    12  C    0.002371  -0.000900  -0.000111   0.000815  -0.041198   0.001079
    13  H    0.000087   0.000078  -0.000000  -0.000326   0.004253  -0.000063
    14  H    0.002434   0.000214  -0.000001   0.000125  -0.002284   0.000378
    15  H   -0.000162  -0.000613   0.000061   0.001114  -0.004060   0.000024
               7          8          9         10         11         12
     1  O   -0.002741   0.001556   0.001935  -0.000005   0.000012   0.002371
     2  C    0.000411  -0.015676  -0.019748   0.000226  -0.000134  -0.000900
     3  O    0.000005   0.000112   0.001817  -0.000001   0.000001  -0.000111
     4  C   -0.082819   0.372318   0.367804   0.001005   0.004832   0.000815
     5  C    0.357819  -0.032227  -0.032608  -0.034281  -0.045644  -0.041198
     6  O   -0.069977   0.002380   0.002556   0.001458   0.004966   0.001079
     7  C    5.228554   0.002902   0.004864   0.384101   0.392894   0.306244
     8  H    0.002902   0.455836  -0.015535  -0.000322  -0.000094   0.000150
     9  H    0.004864  -0.015535   0.469222  -0.000388  -0.000031  -0.001482
    10  H    0.384101  -0.000322  -0.000388   0.496634  -0.020812  -0.034265
    11  H    0.392894  -0.000094  -0.000031  -0.020812   0.501370  -0.031970
    12  C    0.306244   0.000150  -0.001482  -0.034265  -0.031970   5.136595
    13  H   -0.034680   0.000003  -0.000004  -0.003887  -0.003486   0.392943
    14  H   -0.039634  -0.000018  -0.000041   0.003815  -0.001797   0.392718
    15  H   -0.035425   0.000046   0.000571  -0.002117   0.003361   0.392443
              13         14         15
     1  O    0.000087   0.002434  -0.000162
     2  C    0.000078   0.000214  -0.000613
     3  O   -0.000000  -0.000001   0.000061
     4  C   -0.000326   0.000125   0.001114
     5  C    0.004253  -0.002284  -0.004060
     6  O   -0.000063   0.000378   0.000024
     7  C   -0.034680  -0.039634  -0.035425
     8  H    0.000003  -0.000018   0.000046
     9  H   -0.000004  -0.000041   0.000571
    10  H   -0.003887   0.003815  -0.002117
    11  H   -0.003486  -0.001797   0.003361
    12  C    0.392943   0.392718   0.392443
    13  H    0.513007  -0.025851  -0.025732
    14  H   -0.025851   0.514894  -0.026686
    15  H   -0.025732  -0.026686   0.514537
 Mulliken charges:
               1
     1  O   -0.815630
     2  C    0.781683
     3  O   -0.830576
     4  C   -0.546435
     5  C    0.590891
     6  O   -0.655031
     7  C   -0.412516
     8  H    0.228572
     9  H    0.221069
    10  H    0.208839
    11  H    0.196534
    12  C   -0.515433
    13  H    0.183657
    14  H    0.181736
    15  H    0.182639
 Sum of Mulliken charges =  -1.00000
 Mulliken charges with hydrogens summed into heavy atoms:
               1
     1  O   -0.815630
     2  C    0.781683
     3  O   -0.830576
     4  C   -0.096794
     5  C    0.590891
     6  O   -0.655031
     7  C   -0.007143
    12  C    0.032600
 DipInt: DoE/N= T F RetVal/Mat= T F Init=T NMatP=  1 IDeriv=0 Min/MaxMlt=  0  4
 Entering OneElI...
 OneElI was handed   134169352 working-precision words.
 Multipole integrals L=0 to 4 MinM= 0 MaxM= 0.
 Requested accuracy = 0.1000D-12
 ShPair: Thresh= 1.00D-13 NBox=     0 BxSize= 0.00D+00 RnKept= 1.04D+01
         NSMCal=                 1081 NSMKep=                1037
 PrsmSu:  NPrtUS=   1 ThrOK=F IAlg=1 NPAlg=1 LenDen=           0.
 Prism:   IPart=     0 DynPar=F LinDyn=F Incr=          10.
 PRISM was handed   134070292 working-precision words and  1037 shell-pairs
 IPart=  0 NShTot=        1037 NBatch=          42 AvBLen=        24.7
 PrSmSu:  NxtVal=             11.
 Electronic moments (au):
        -62.00000000          3.79141698          0.52208619         -2.06304471
       -605.58394549       -271.05029114       -146.19721364          7.51605125
         -1.02138984          1.95186297        412.59474221          7.26913662
        -42.88407648       -473.20149087       -389.03769572        124.11773122
        117.22368552         -1.76892663        -82.02015985         54.09927032
     -11162.54832755      -3379.84467128      -1007.28512159          5.23703524
       -478.97656232       -467.99774228        210.55530596        224.71760234
       -108.50368582      -2090.46614803      -1127.84003075       -456.66158044
        146.12935411       -275.96788551         43.56114171
 Electronic spatial extent (au):  <R**2>=           1022.8315
 DipInt: DoE/N= F T RetVal/Mat= T F Init=T NMatP=  1 IDeriv=0 Min/MaxMlt=  0  4
 Nuclear    moments (au):
         61.00000000          0.00000000         -0.00000000          0.00000000
        551.77545738        229.68209143        105.75321011         -0.00000000
         -0.00003201         -0.00001113       -318.54970849          7.82208633
         31.46909886        462.23801009        376.84179932       -118.88469331
       -103.32180001         -1.23572498         72.90203963        -50.58023486
       8686.14897530       2395.94078716        515.35777905         88.41480428
        404.33003471        504.53318134       -187.08648763       -205.60681722
        100.21162881       1574.14568586        664.84149545        220.58405313
       -133.46564408        262.12427606        -35.73820347
 Total      moments (au):
         -1.00000000          3.79141698          0.52208619         -2.06304471
        -53.80848812        -41.36819971        -40.44400353          7.51605125
         -1.02142185          1.95185184         94.04503371         15.09122295
        -11.41497763        -10.96348077        -12.19589640          5.23303791
         13.90188551         -3.00465161         -9.11812022          3.51903546
      -2476.39935225       -983.90388412       -491.92734254         93.65183952
        -74.64652761         36.53543905         23.46881833         19.11078511
         -8.29205701       -516.32046217       -462.99853530       -236.07752731
         12.66371003        -13.84360945          7.82293824
 Traceless Quadrup. (au):
         -8.60159100          3.83869741          4.76289358          7.51605125
         -1.02142185          1.95185184
 Charge=             -1.0000 electrons
 Dipole moment (field-independent basis, Debye):
    X=              9.6368    Y=              1.3270    Z=             -5.2437  Tot=             11.0511
 Quadrupole moment (field-independent basis, Debye-Ang):
   XX=            -72.3743   YY=            -55.6416   ZZ=            -54.3986
   XY=             10.1093   XZ=             -1.3738   YZ=              2.6253
 Traceless Quadrupole moment (field-independent basis, Debye-Ang):
   XX=            -11.5694   YY=              5.1632   ZZ=              6.4063
   XY=             10.1093   XZ=             -1.3738   YZ=              2.6253
 Octapole moment (field-independent basis, Debye-Ang**2):
  XXX=             66.9376  YYY=             10.7414  ZZZ=             -8.1247  XYY=             -7.8034
  XXY=             -8.6806  XXZ=              3.7247  XZZ=              9.8948  YZZ=             -2.1386
  YYZ=             -6.4899  XYZ=              2.5047
 Hexadecapole moment (field-independent basis, Debye-Ang**3):
 XXXX=           -932.7307 YYYY=           -370.5854 ZZZZ=           -185.2834 XXXY=             35.2738
 XXXZ=            -28.1155 YYYX=             13.7610 YYYZ=              8.8395 ZZZX=              7.1980
 ZZZY=             -3.1232 XXYY=           -194.4710 XXZZ=           -174.3874 YYZZ=            -88.9181
 XXYZ=              4.7698 YYXZ=             -5.2142 ZZXY=              2.9465
 N-N= 3.679040133078D+02 E-N=-1.731664858139D+03  KE= 4.174973444297D+02
 Entering OneElI...
 OneElI was handed   134177888 working-precision words.
 Calculate electrostatic properties
    NBasis =   134  MinDer = 0  MaxDer = 0
    NGrid  =    15  NMatD  =   1
 Requested accuracy = 0.1000D-12
 ShPair: Thresh= 1.00D-13 NBox=     0 BxSize= 0.00D+00 RnKept= 1.04D+01
         NSMCal=                 1081 NSMKep=                1010
 PrsmSu:  NPrtUS=   1 ThrOK=F IAlg=1 NPAlg=1 LenDen=           0.
 Prism:   IPart=     0 DynPar=F LinDyn=F Incr=         151.
 PRISM was handed   134084016 working-precision words and  1010 shell-pairs
 IPart=  0 NShTot=       15150 NBatch=        1010 AvBLen=        15.0
 PrSmSu:  NxtVal=            152.
 --------------------------------------------------------
       Center         ----      EFG at Nuclei      ----
                      3XX-RR        3YY-RR        3ZZ-RR
 --------------------------------------------------------
     1   Atom        1.031030     -0.056861     -0.974169
     2   Atom        0.176595     -0.442090      0.265495
     3   Atom       -0.689407     -0.136838      0.826245
     4   Atom       -0.055099      0.042106      0.012992
     5   Atom        0.290567      0.088595     -0.379162
     6   Atom        1.468631     -0.577727     -0.890904
     7   Atom       -0.031664     -0.009644      0.041308
     8   Atom        0.088941     -0.208572      0.119630
     9   Atom        0.143134      0.003242     -0.146376
    10   Atom        0.124929      0.149589     -0.274518
    11   Atom       -0.135672      0.103522      0.032150
    12   Atom        0.039163     -0.072838      0.033675
    13   Atom       -0.130767     -0.017522      0.148289
    14   Atom        0.141063      0.150155     -0.291218
    15   Atom       -0.121104      0.091351      0.029753
 --------------------------------------------------------
                        XY            XZ            YZ
 --------------------------------------------------------
     1   Atom       -0.658496     -0.396782      0.000033
     2   Atom       -0.294391      0.095404      0.162260
     3   Atom       -0.016770     -0.803988      0.572471
     4   Atom       -0.004696     -0.031938     -0.004797
     5   Atom        0.200625      0.301618     -0.401472
     6   Atom        0.812657      0.668658     -0.007614
     7   Atom       -0.038331      0.016166     -0.032386
     8   Atom       -0.150999     -0.049903     -0.122647
     9   Atom       -0.032883      0.042427      0.218972
    10   Atom       -0.005668      0.105735     -0.005170
    11   Atom        0.118264     -0.194996      0.077385
    12   Atom        0.022025      0.000618     -0.034314
    13   Atom       -0.219665      0.060137      0.041959
    14   Atom        0.009884      0.106086     -0.021715
    15   Atom        0.130543     -0.195579      0.081878
 --------------------------------------------------------


 ---------------------------------------------------------------------------------
              Nuclear Quadrupole Coupling Constant in Principal Axis System
 ---------------------------------------------------------------------------------

       Atom             a.u.   MegaHertz   Gauss  10(-4) cm-1        Axes


 ---------------------------------------------------------------------------------

 No NMR shielding tensors so no spin-rotation constants.
 Leave Link  601 at Mon Dec 12 11:44:12 2022, MaxMem=   134217728 cpu:         0.1
 FitSet:  NAtFit=    15 NAtPot=    15 NAtFrz=     0 MDM=    19 TotChg=  -1.00000
 Merz-Kollman atomic radii used.
 Atom Element Radius
    1     8    1.40
    2     6    1.50
    3     8    1.40
    4     6    1.50
    5     6    1.50
    6     8    1.40
    7     6    1.50
    8     1    1.20
    9     1    1.20
   10     1    1.20
   11     1    1.20
   12     6    1.50
   13     1    1.20
   14     1    1.20
   15     1    1.20
 Generate VDW surfaces: Layer= 4 Dens= 6 Start= 1.400 Inc= 0.200

 **********************************************************************

            Electrostatic Properties Using The SCF Density

 **********************************************************************

       Atomic Center    1 is at  -1.250310  0.276263  1.263769
       Atomic Center    2 is at  -1.529149  0.111179  0.065632
       Atomic Center    3 is at  -2.597935  0.414129 -0.485865
       Atomic Center    4 is at  -0.473275 -0.539209 -0.840972
       Atomic Center    5 is at   0.844795 -0.782557 -0.145335
       Atomic Center    6 is at   1.012943 -1.782959  0.508087
       Atomic Center    7 is at   1.955566  0.225746 -0.321151
       Atomic Center    8 is at  -0.867381 -1.496870 -1.163786
       Atomic Center    9 is at  -0.345689  0.081863 -1.719202
       Atomic Center   10 is at   2.219689  0.217752 -1.376319
       Atomic Center   11 is at   2.813414 -0.125554  0.239018
       Atomic Center   12 is at   1.590803  1.653614  0.096914
       Atomic Center   13 is at   2.438649  2.307196 -0.075621
       Atomic Center   14 is at   1.338066  1.702319  1.149740
       Atomic Center   15 is at   0.753236  2.041187 -0.472291
      ESP Fit Center   16 is at  -1.250310  0.276263  3.223769
      ESP Fit Center   17 is at  -0.842803  0.276263  3.180938
      ESP Fit Center   18 is at  -1.046557  0.629175  3.180938
      ESP Fit Center   19 is at  -1.454064  0.629175  3.180938
      ESP Fit Center   20 is at  -1.657817  0.276263  3.180938
      ESP Fit Center   21 is at  -1.454064 -0.076648  3.180938
      ESP Fit Center   22 is at  -1.046557 -0.076648  3.180938
      ESP Fit Center   23 is at  -0.453106  0.276263  3.054318
      ESP Fit Center   24 is at  -0.559911  0.674865  3.054318
      ESP Fit Center   25 is at  -0.851708  0.966662  3.054318
      ESP Fit Center   26 is at  -1.250310  1.073467  3.054318
      ESP Fit Center   27 is at  -1.648912  0.966662  3.054318
      ESP Fit Center   28 is at  -1.940709  0.674865  3.054318
      ESP Fit Center   29 is at  -2.047514  0.276263  3.054318
      ESP Fit Center   30 is at  -1.940709 -0.122339  3.054318
      ESP Fit Center   31 is at  -1.648912 -0.414135  3.054318
      ESP Fit Center   32 is at  -1.250310 -0.520940  3.054318
      ESP Fit Center   33 is at  -0.851708 -0.414135  3.054318
      ESP Fit Center   34 is at  -0.559911 -0.122339  3.054318
      ESP Fit Center   35 is at  -0.098251  0.276263  2.849442
      ESP Fit Center   36 is at  -0.176047  0.692435  2.849442
      ESP Fit Center   37 is at  -0.398928  1.052401  2.849442
      ESP Fit Center   38 is at  -0.736793  1.307544  2.849442
      ESP Fit Center   39 is at  -1.144011  1.423408  2.849442
      ESP Fit Center   40 is at  -1.565586  1.384343  2.849442
      ESP Fit Center   41 is at  -1.944581  1.195626  2.849442
      ESP Fit Center   42 is at  -2.229810  0.882744  2.849442
      ESP Fit Center   43 is at  -2.382753  0.487954  2.849442
      ESP Fit Center   44 is at  -2.382753  0.064573  2.849442
      ESP Fit Center   45 is at  -2.229810 -0.330218  2.849442
      ESP Fit Center   46 is at  -1.944581 -0.643100  2.849442
      ESP Fit Center   47 is at  -1.565586 -0.831817  2.849442
      ESP Fit Center   48 is at  -1.144011 -0.870881  2.849442
      ESP Fit Center   49 is at  -0.736793 -0.755018  2.849442
      ESP Fit Center   50 is at  -0.398928 -0.499874  2.849442
      ESP Fit Center   51 is at  -0.176047 -0.139908  2.849442
      ESP Fit Center   52 is at   0.206254  0.276263  2.575265
      ESP Fit Center   53 is at   0.147253  0.686625  2.575265
      ESP Fit Center   54 is at  -0.024971  1.063741  2.575265
      ESP Fit Center   55 is at  -0.296464  1.377061  2.575265
      ESP Fit Center   56 is at  -0.645232  1.601200  2.575265
      ESP Fit Center   57 is at  -1.043019  1.718002  2.575265
      ESP Fit Center   58 is at  -1.457601  1.718002  2.575265
      ESP Fit Center   59 is at  -1.855389  1.601200  2.575265
      ESP Fit Center   60 is at  -2.204157  1.377061  2.575265
      ESP Fit Center   61 is at  -2.475650  1.063741  2.575265
      ESP Fit Center   62 is at  -2.647873  0.686625  2.575265
      ESP Fit Center   63 is at  -2.706874  0.276263  2.575265
      ESP Fit Center   64 is at  -2.647873 -0.134098  2.575265
      ESP Fit Center   65 is at  -2.475650 -0.511214  2.575265
      ESP Fit Center   66 is at  -2.204157 -0.824534  2.575265
      ESP Fit Center   67 is at  -1.855389 -1.048674  2.575265
      ESP Fit Center   68 is at  -1.457601 -1.165475  2.575265
      ESP Fit Center   69 is at  -1.043019 -1.165475  2.575265
      ESP Fit Center   70 is at  -0.645232 -1.048674  2.575265
      ESP Fit Center   71 is at  -0.296464 -0.824534  2.575265
      ESP Fit Center   72 is at  -0.024971 -0.511214  2.575265
      ESP Fit Center   73 is at   0.147253 -0.134098  2.575265
      ESP Fit Center   74 is at   0.447100  0.276263  2.243769
      ESP Fit Center   75 is at   0.393772  0.698392  2.243769
      ESP Fit Center   76 is at  -0.012952  1.438220  2.243769
      ESP Fit Center   77 is at  -0.340792  1.709434  2.243769
      ESP Fit Center   78 is at  -0.725782  1.890596  2.243769
      ESP Fit Center   79 is at  -1.143729  1.970324  2.243769
      ESP Fit Center   80 is at  -1.568373  1.943607  2.243769
      ESP Fit Center   81 is at  -1.973032  1.812126  2.243769
      ESP Fit Center   82 is at  -2.332280  1.584140  2.243769
      ESP Fit Center   83 is at  -2.623543  1.273976  2.243769
      ESP Fit Center   84 is at  -2.828522  0.901122  2.243769
      ESP Fit Center   85 is at  -2.934335  0.489005  2.243769
      ESP Fit Center   86 is at  -2.934335  0.063522  2.243769
      ESP Fit Center   87 is at  -2.828522 -0.348595  2.243769
      ESP Fit Center   88 is at  -2.623543 -0.721449  2.243769
      ESP Fit Center   89 is at  -2.332280 -1.031613  2.243769
      ESP Fit Center   90 is at  -1.973032 -1.259599  2.243769
      ESP Fit Center   91 is at  -1.568373 -1.391081  2.243769
      ESP Fit Center   92 is at  -1.143729 -1.417797  2.243769
      ESP Fit Center   93 is at  -0.725782 -1.338069  2.243769
      ESP Fit Center   94 is at  -0.340792 -1.156907  2.243769
      ESP Fit Center   95 is at  -0.012952 -0.885694  2.243769
      ESP Fit Center   96 is at   0.237141 -0.541470  2.243769
      ESP Fit Center   97 is at   0.393772 -0.145865  2.243769
      ESP Fit Center   98 is at   0.613761  0.276263  1.869442
      ESP Fit Center   99 is at  -0.441520  1.955733  1.869442
      ESP Fit Center  100 is at  -0.835515  2.093598  1.869442
      ESP Fit Center  101 is at  -1.250310  2.140334  1.869442
      ESP Fit Center  102 is at  -1.665105  2.093598  1.869442
      ESP Fit Center  103 is at  -2.059100  1.955733  1.869442
      ESP Fit Center  104 is at  -2.412539  1.733653  1.869442
      ESP Fit Center  105 is at  -2.707699  1.438493  1.869442
      ESP Fit Center  106 is at  -2.929780  1.085053  1.869442
      ESP Fit Center  107 is at  -3.067645  0.691058  1.869442
      ESP Fit Center  108 is at  -3.114381  0.276263  1.869442
      ESP Fit Center  109 is at  -3.067645 -0.138531  1.869442
      ESP Fit Center  110 is at  -2.929780 -0.532527  1.869442
      ESP Fit Center  111 is at  -2.707699 -0.885966  1.869442
      ESP Fit Center  112 is at  -2.412539 -1.181126  1.869442
      ESP Fit Center  113 is at  -2.059100 -1.403206  1.869442
      ESP Fit Center  114 is at  -1.665105 -1.541071  1.869442
      ESP Fit Center  115 is at  -1.250310 -1.587807  1.869442
      ESP Fit Center  116 is at  -0.835515 -1.541071  1.869442
      ESP Fit Center  117 is at  -0.441520 -1.403206  1.869442
      ESP Fit Center  118 is at   0.567025 -0.138531  1.869442
      ESP Fit Center  119 is at  -0.337259  1.998461  1.468645
      ESP Fit Center  120 is at  -0.728827  2.154476  1.468645
      ESP Fit Center  121 is at  -1.144779  2.222668  1.468645
      ESP Fit Center  122 is at  -1.565666  2.199848  1.468645
      ESP Fit Center  123 is at  -1.971807  2.087083  1.468645
      ESP Fit Center  124 is at  -2.344211  1.889647  1.468645
      ESP Fit Center  125 is at  -2.665466  1.616770  1.468645
      ESP Fit Center  126 is at  -2.920550  1.281213  1.468645
      ESP Fit Center  127 is at  -3.097535  0.898666  1.468645
      ESP Fit Center  128 is at  -3.188146  0.487016  1.468645
      ESP Fit Center  129 is at  -3.188146  0.065511  1.468645
      ESP Fit Center  130 is at  -3.097535 -0.346139  1.468645
      ESP Fit Center  131 is at  -2.920550 -0.728687  1.468645
      ESP Fit Center  132 is at  -2.665466 -1.064244  1.468645
      ESP Fit Center  133 is at  -2.344211 -1.337120  1.468645
      ESP Fit Center  134 is at  -1.971807 -1.534556  1.468645
      ESP Fit Center  135 is at  -1.565666 -1.647321  1.468645
      ESP Fit Center  136 is at  -1.144779 -1.670141  1.468645
      ESP Fit Center  137 is at  -0.728827 -1.601949  1.468645
      ESP Fit Center  138 is at  -0.337259  1.998461  1.058893
      ESP Fit Center  139 is at  -0.728827  2.154476  1.058893
      ESP Fit Center  140 is at  -1.144779  2.222668  1.058893
      ESP Fit Center  141 is at  -1.565666  2.199848  1.058893
      ESP Fit Center  142 is at  -1.971807  2.087083  1.058893
      ESP Fit Center  143 is at  -2.344211  1.889647  1.058893
      ESP Fit Center  144 is at  -0.835515  2.093598  0.658096
      ESP Fit Center  145 is at  -1.250310  2.140334  0.658096
      ESP Fit Center  146 is at  -3.224497 -0.306686  1.232330
      ESP Fit Center  147 is at  -3.075232 -0.700267  1.232330
      ESP Fit Center  148 is at  -2.836113 -1.046690  1.232330
      ESP Fit Center  149 is at  -2.521039 -1.325821  1.232330
      ESP Fit Center  150 is at  -2.148320 -1.521440  1.232330
      ESP Fit Center  151 is at  -1.739617 -1.622176  1.232330
      ESP Fit Center  152 is at  -3.191578 -0.889071  0.869267
      ESP Fit Center  153 is at  -2.937687 -1.223059  0.869267
      ESP Fit Center  154 is at  -2.617935 -1.494659  0.869267
      ESP Fit Center  155 is at  -2.247272 -1.691172  0.869267
      ESP Fit Center  156 is at  -1.843030 -1.803409  0.869267
      ESP Fit Center  157 is at  -1.424112 -1.826122  0.869267
      ESP Fit Center  158 is at  -1.010105 -1.758249  0.869267
      ESP Fit Center  159 is at  -0.813822  2.042620  0.475322
      ESP Fit Center  160 is at  -1.217261  2.147077  0.475322
      ESP Fit Center  161 is at  -1.633469  2.168185  0.475322
      ESP Fit Center  162 is at  -2.045405  2.105079  0.475322
      ESP Fit Center  163 is at  -3.091925 -1.230419  0.475322
      ESP Fit Center  164 is at  -2.789873 -1.517541  0.475322
      ESP Fit Center  165 is at  -2.436207 -1.737983  0.475322
      ESP Fit Center  166 is at  -2.045405 -1.882720  0.475322
      ESP Fit Center  167 is at  -1.633469 -1.945826  0.475322
      ESP Fit Center  168 is at  -1.119459  2.170829  0.065632
      ESP Fit Center  169 is at  -1.529149  2.211179  0.065632
      ESP Fit Center  170 is at  -2.695847 -1.634907  0.065632
      ESP Fit Center  171 is at  -2.332784 -1.828968  0.065632
      ESP Fit Center  172 is at  -1.938839 -1.948470  0.065632
      ESP Fit Center  173 is at  -1.217261  2.147077 -0.344058
      ESP Fit Center  174 is at  -1.633469  2.168185 -0.344058
      ESP Fit Center  175 is at  -2.436207 -1.737983 -0.344058
      ESP Fit Center  176 is at  -1.010105  1.980608 -0.738003
      ESP Fit Center  177 is at  -1.424112  2.048481 -0.738003
      ESP Fit Center  178 is at  -0.909978  1.743798 -1.101065
      ESP Fit Center  179 is at  -1.318682  1.844535 -1.101065
      ESP Fit Center  180 is at  -1.317822  1.580989 -1.419292
      ESP Fit Center  181 is at  -3.288334  0.812730  1.304684
      ESP Fit Center  182 is at  -3.395139  0.414129  1.304684
      ESP Fit Center  183 is at  -3.288334  0.015527  1.304684
      ESP Fit Center  184 is at  -2.913211  1.522209  1.099808
      ESP Fit Center  185 is at  -3.292206  1.333492  1.099808
      ESP Fit Center  186 is at  -3.577435  1.020610  1.099808
      ESP Fit Center  187 is at  -3.730378  0.625819  1.099808
      ESP Fit Center  188 is at  -3.730378  0.202438  1.099808
      ESP Fit Center  189 is at  -3.577435 -0.192352  1.099808
      ESP Fit Center  190 is at  -3.292206 -0.505234  1.099808
      ESP Fit Center  191 is at  -2.805226  1.855867  0.825631
      ESP Fit Center  192 is at  -3.203014  1.739066  0.825631
      ESP Fit Center  193 is at  -3.551782  1.514926  0.825631
      ESP Fit Center  194 is at  -3.823275  1.201606  0.825631
      ESP Fit Center  195 is at  -3.995498  0.824490  0.825631
      ESP Fit Center  196 is at  -4.054499  0.414129  0.825631
      ESP Fit Center  197 is at  -3.995498  0.003767  0.825631
      ESP Fit Center  198 is at  -3.823275 -0.373349  0.825631
      ESP Fit Center  199 is at  -3.551782 -0.686669  0.825631
      ESP Fit Center  200 is at  -3.203014 -0.910809  0.825631
      ESP Fit Center  201 is at  -2.491354  2.108189  0.494135
      ESP Fit Center  202 is at  -2.915998  2.081473  0.494135
      ESP Fit Center  203 is at  -3.320657  1.949991  0.494135
      ESP Fit Center  204 is at  -3.679905  1.722005  0.494135
      ESP Fit Center  205 is at  -3.971168  1.411841  0.494135
      ESP Fit Center  206 is at  -4.176147  1.038987  0.494135
      ESP Fit Center  207 is at  -4.281960  0.626870  0.494135
      ESP Fit Center  208 is at  -4.281960  0.201387  0.494135
      ESP Fit Center  209 is at  -4.176147 -0.210730  0.494135
      ESP Fit Center  210 is at  -3.971168 -0.583584  0.494135
      ESP Fit Center  211 is at  -3.679905 -0.893748  0.494135
      ESP Fit Center  212 is at  -3.320657 -1.121734  0.494135
      ESP Fit Center  213 is at  -2.183140  2.231463  0.119808
      ESP Fit Center  214 is at  -2.597935  2.278199  0.119808
      ESP Fit Center  215 is at  -3.012730  2.231463  0.119808
      ESP Fit Center  216 is at  -3.406725  2.093598  0.119808
      ESP Fit Center  217 is at  -3.760164  1.871518  0.119808
      ESP Fit Center  218 is at  -4.055324  1.576358  0.119808
      ESP Fit Center  219 is at  -4.277405  1.222919  0.119808
      ESP Fit Center  220 is at  -4.415270  0.828923  0.119808
      ESP Fit Center  221 is at  -4.462006  0.414129  0.119808
      ESP Fit Center  222 is at  -4.415270 -0.000666  0.119808
      ESP Fit Center  223 is at  -4.277405 -0.394661  0.119808
      ESP Fit Center  224 is at  -4.055324 -0.748101  0.119808
      ESP Fit Center  225 is at  -3.760164 -1.043261  0.119808
      ESP Fit Center  226 is at  -3.406725 -1.265341  0.119808
      ESP Fit Center  227 is at  -3.012730 -1.403206  0.119808
      ESP Fit Center  228 is at  -2.076452  2.292341 -0.280989
      ESP Fit Center  229 is at  -2.492404  2.360533 -0.280989
      ESP Fit Center  230 is at  -2.913291  2.337713 -0.280989
      ESP Fit Center  231 is at  -3.319432  2.224948 -0.280989
      ESP Fit Center  232 is at  -3.691836  2.027512 -0.280989
      ESP Fit Center  233 is at  -4.013091  1.754636 -0.280989
      ESP Fit Center  234 is at  -4.268175  1.419079 -0.280989
      ESP Fit Center  235 is at  -4.445160  1.036531 -0.280989
      ESP Fit Center  236 is at  -4.535771  0.624881 -0.280989
      ESP Fit Center  237 is at  -4.535771  0.203376 -0.280989
      ESP Fit Center  238 is at  -4.445160 -0.208274 -0.280989
      ESP Fit Center  239 is at  -4.268175 -0.590821 -0.280989
      ESP Fit Center  240 is at  -4.013091 -0.926378 -0.280989
      ESP Fit Center  241 is at  -3.691836 -1.199255 -0.280989
      ESP Fit Center  242 is at  -3.319432 -1.396691 -0.280989
      ESP Fit Center  243 is at  -2.913291 -1.509456 -0.280989
      ESP Fit Center  244 is at  -1.684884  2.136326 -0.690741
      ESP Fit Center  245 is at  -2.076452  2.292341 -0.690741
      ESP Fit Center  246 is at  -2.492404  2.360533 -0.690741
      ESP Fit Center  247 is at  -2.913291  2.337713 -0.690741
      ESP Fit Center  248 is at  -3.319432  2.224948 -0.690741
      ESP Fit Center  249 is at  -3.691836  2.027512 -0.690741
      ESP Fit Center  250 is at  -4.013091  1.754636 -0.690741
      ESP Fit Center  251 is at  -4.268175  1.419079 -0.690741
      ESP Fit Center  252 is at  -4.445160  1.036531 -0.690741
      ESP Fit Center  253 is at  -4.535771  0.624881 -0.690741
      ESP Fit Center  254 is at  -4.535771  0.203376 -0.690741
      ESP Fit Center  255 is at  -4.445160 -0.208274 -0.690741
      ESP Fit Center  256 is at  -4.268175 -0.590821 -0.690741
      ESP Fit Center  257 is at  -4.013091 -0.926378 -0.690741
      ESP Fit Center  258 is at  -3.691836 -1.199255 -0.690741
      ESP Fit Center  259 is at  -3.319432 -1.396691 -0.690741
      ESP Fit Center  260 is at  -2.913291 -1.509456 -0.690741
      ESP Fit Center  261 is at  -1.435706  1.871518 -1.091538
      ESP Fit Center  262 is at  -1.789145  2.093598 -1.091538
      ESP Fit Center  263 is at  -2.183140  2.231463 -1.091538
      ESP Fit Center  264 is at  -2.597935  2.278199 -1.091538
      ESP Fit Center  265 is at  -3.012730  2.231463 -1.091538
      ESP Fit Center  266 is at  -3.406725  2.093598 -1.091538
      ESP Fit Center  267 is at  -3.760164  1.871518 -1.091538
      ESP Fit Center  268 is at  -4.055324  1.576358 -1.091538
      ESP Fit Center  269 is at  -4.277405  1.222919 -1.091538
      ESP Fit Center  270 is at  -4.415270  0.828923 -1.091538
      ESP Fit Center  271 is at  -4.462006  0.414129 -1.091538
      ESP Fit Center  272 is at  -4.415270 -0.000666 -1.091538
      ESP Fit Center  273 is at  -4.277405 -0.394661 -1.091538
      ESP Fit Center  274 is at  -4.055324 -0.748101 -1.091538
      ESP Fit Center  275 is at  -3.760164 -1.043261 -1.091538
      ESP Fit Center  276 is at  -3.406725 -1.265341 -1.091538
      ESP Fit Center  277 is at  -3.012730 -1.403206 -1.091538
      ESP Fit Center  278 is at  -2.597935 -1.449942 -1.091538
      ESP Fit Center  279 is at  -1.360577  1.576086 -1.465865
      ESP Fit Center  280 is at  -1.688417  1.847299 -1.465865
      ESP Fit Center  281 is at  -2.073407  2.028461 -1.465865
      ESP Fit Center  282 is at  -2.491354  2.108189 -1.465865
      ESP Fit Center  283 is at  -2.915998  2.081473 -1.465865
      ESP Fit Center  284 is at  -3.320657  1.949991 -1.465865
      ESP Fit Center  285 is at  -3.679905  1.722005 -1.465865
      ESP Fit Center  286 is at  -3.971168  1.411841 -1.465865
      ESP Fit Center  287 is at  -4.176147  1.038987 -1.465865
      ESP Fit Center  288 is at  -4.281960  0.626870 -1.465865
      ESP Fit Center  289 is at  -4.281960  0.201387 -1.465865
      ESP Fit Center  290 is at  -4.176147 -0.210730 -1.465865
      ESP Fit Center  291 is at  -3.971168 -0.583584 -1.465865
      ESP Fit Center  292 is at  -3.679905 -0.893748 -1.465865
      ESP Fit Center  293 is at  -3.320657 -1.121734 -1.465865
      ESP Fit Center  294 is at  -2.915998 -1.253215 -1.465865
      ESP Fit Center  295 is at  -1.644089  1.514926 -1.797361
      ESP Fit Center  296 is at  -1.992857  1.739066 -1.797361
      ESP Fit Center  297 is at  -2.390644  1.855867 -1.797361
      ESP Fit Center  298 is at  -2.805226  1.855867 -1.797361
      ESP Fit Center  299 is at  -3.203014  1.739066 -1.797361
      ESP Fit Center  300 is at  -3.551782  1.514926 -1.797361
      ESP Fit Center  301 is at  -3.823275  1.201606 -1.797361
      ESP Fit Center  302 is at  -3.995498  0.824490 -1.797361
      ESP Fit Center  303 is at  -4.054499  0.414129 -1.797361
      ESP Fit Center  304 is at  -3.995498  0.003767 -1.797361
      ESP Fit Center  305 is at  -3.823275 -0.373349 -1.797361
      ESP Fit Center  306 is at  -3.551782 -0.686669 -1.797361
      ESP Fit Center  307 is at  -3.203014 -0.910809 -1.797361
      ESP Fit Center  308 is at  -2.805226 -1.027610 -1.797361
      ESP Fit Center  309 is at  -2.390644 -1.027610 -1.797361
      ESP Fit Center  310 is at  -1.746553  1.190266 -2.071538
      ESP Fit Center  311 is at  -2.084418  1.445410 -2.071538
      ESP Fit Center  312 is at  -2.491636  1.561273 -2.071538
      ESP Fit Center  313 is at  -2.913211  1.522209 -2.071538
      ESP Fit Center  314 is at  -3.292206  1.333492 -2.071538
      ESP Fit Center  315 is at  -3.577435  1.020610 -2.071538
      ESP Fit Center  316 is at  -3.730378  0.625819 -2.071538
      ESP Fit Center  317 is at  -3.730378  0.202438 -2.071538
      ESP Fit Center  318 is at  -3.577435 -0.192352 -2.071538
      ESP Fit Center  319 is at  -3.292206 -0.505234 -2.071538
      ESP Fit Center  320 is at  -2.913211 -0.693951 -2.071538
      ESP Fit Center  321 is at  -2.491636 -0.733016 -2.071538
      ESP Fit Center  322 is at  -1.907536  0.812730 -2.276414
      ESP Fit Center  323 is at  -2.199333  1.104527 -2.276414
      ESP Fit Center  324 is at  -2.597935  1.211332 -2.276414
      ESP Fit Center  325 is at  -2.996537  1.104527 -2.276414
      ESP Fit Center  326 is at  -3.288334  0.812730 -2.276414
      ESP Fit Center  327 is at  -3.395139  0.414129 -2.276414
      ESP Fit Center  328 is at  -3.288334  0.015527 -2.276414
      ESP Fit Center  329 is at  -2.996537 -0.276270 -2.276414
      ESP Fit Center  330 is at  -2.597935 -0.383075 -2.276414
      ESP Fit Center  331 is at  -2.199333 -0.276270 -2.276414
      ESP Fit Center  332 is at  -2.190428  0.414129 -2.403034
      ESP Fit Center  333 is at  -2.394182  0.767040 -2.403034
      ESP Fit Center  334 is at  -2.801689  0.767040 -2.403034
      ESP Fit Center  335 is at  -3.005442  0.414129 -2.403034
      ESP Fit Center  336 is at  -2.801689  0.061217 -2.403034
      ESP Fit Center  337 is at  -2.394182  0.061217 -2.403034
      ESP Fit Center  338 is at  -2.597935  0.414129 -2.445865
      ESP Fit Center  339 is at  -1.090135 -1.889943  0.643952
      ESP Fit Center  340 is at   0.518615 -1.976209 -2.007669
      ESP Fit Center  341 is at  -1.958199 -0.539209 -2.325896
      ESP Fit Center  342 is at   0.499143 -1.661440 -2.325896
      ESP Fit Center  343 is at   0.775923 -1.342019 -2.325896
      ESP Fit Center  344 is at   0.951499 -0.957560 -2.325896
      ESP Fit Center  345 is at  -1.620107 -0.753589 -2.587058
      ESP Fit Center  346 is at   0.046767 -1.583593 -2.587058
      ESP Fit Center  347 is at   0.388925 -1.325208 -2.587058
      ESP Fit Center  348 is at  -1.169244 -0.941026 -2.781119
      ESP Fit Center  349 is at  -0.071458 -1.235177 -2.781119
      ESP Fit Center  350 is at   0.639950 -0.427755  1.914314
      ESP Fit Center  351 is at   1.540763 -0.380739  1.794812
      ESP Fit Center  352 is at   1.246612 -0.086588  1.794812
      ESP Fit Center  353 is at   0.844795  0.021078  1.794812
      ESP Fit Center  354 is at   2.389332 -1.956684 -0.948970
      ESP Fit Center  355 is at   0.634327 -2.515912 -1.312032
      ESP Fit Center  356 is at   1.055262 -2.515912 -1.312032
      ESP Fit Center  357 is at   1.463965 -2.415176 -1.312032
      ESP Fit Center  358 is at   1.836685 -2.219558 -1.312032
      ESP Fit Center  359 is at   2.151759 -1.940426 -1.312032
      ESP Fit Center  360 is at   2.390877 -1.594004 -1.312032
      ESP Fit Center  361 is at   0.633468 -2.252367 -1.630259
      ESP Fit Center  362 is at   1.056122 -2.252367 -1.630259
      ESP Fit Center  363 is at   1.461655 -2.133292 -1.630259
      ESP Fit Center  364 is at   1.817213 -1.904788 -1.630259
      ESP Fit Center  365 is at   2.093993 -1.585368 -1.630259
      ESP Fit Center  366 is at   0.952444 -1.944277 -1.891421
      ESP Fit Center  367 is at   1.364837 -1.826942 -1.891421
      ESP Fit Center  368 is at   1.706995 -1.568556 -1.891421
      ESP Fit Center  369 is at   1.246612 -1.478525 -2.085482
      ESP Fit Center  370 is at   1.540763 -1.184375 -2.085482
      ESP Fit Center  371 is at   1.049640 -1.137359 -2.204984
      ESP Fit Center  372 is at   1.012943 -1.782959  2.468087
      ESP Fit Center  373 is at   1.420450 -1.782959  2.425256
      ESP Fit Center  374 is at   1.216696 -1.430048  2.425256
      ESP Fit Center  375 is at   0.809189 -1.430048  2.425256
      ESP Fit Center  376 is at   0.605436 -1.782959  2.425256
      ESP Fit Center  377 is at   0.809189 -2.135870  2.425256
      ESP Fit Center  378 is at   1.216696 -2.135870  2.425256
      ESP Fit Center  379 is at   1.810146 -1.782959  2.298636
      ESP Fit Center  380 is at   1.703341 -1.384357  2.298636
      ESP Fit Center  381 is at   1.411545 -1.092560  2.298636
      ESP Fit Center  382 is at   1.012943 -0.985755  2.298636
      ESP Fit Center  383 is at   0.614341 -1.092560  2.298636
      ESP Fit Center  384 is at   0.322544 -1.384357  2.298636
      ESP Fit Center  385 is at   0.215739 -1.782959  2.298636
      ESP Fit Center  386 is at   0.322544 -2.181561  2.298636
      ESP Fit Center  387 is at   0.614341 -2.473358  2.298636
      ESP Fit Center  388 is at   1.012943 -2.580163  2.298636
      ESP Fit Center  389 is at   1.411545 -2.473358  2.298636
      ESP Fit Center  390 is at   1.703341 -2.181561  2.298636
      ESP Fit Center  391 is at   2.165002 -1.782959  2.093760
      ESP Fit Center  392 is at   2.087206 -1.366787  2.093760
      ESP Fit Center  393 is at   1.864325 -1.006822  2.093760
      ESP Fit Center  394 is at   1.526460 -0.751678  2.093760
      ESP Fit Center  395 is at   1.119241 -0.635814  2.093760
      ESP Fit Center  396 is at   0.697667 -0.674879  2.093760
      ESP Fit Center  397 is at   0.318672 -0.863596  2.093760
      ESP Fit Center  398 is at   0.033442 -1.176478  2.093760
      ESP Fit Center  399 is at  -0.119500 -1.571269  2.093760
      ESP Fit Center  400 is at  -0.119500 -1.994649  2.093760
      ESP Fit Center  401 is at   0.033442 -2.389440  2.093760
      ESP Fit Center  402 is at   0.318672 -2.702322  2.093760
      ESP Fit Center  403 is at   0.697667 -2.891039  2.093760
      ESP Fit Center  404 is at   1.119241 -2.930104  2.093760
      ESP Fit Center  405 is at   1.526460 -2.814240  2.093760
      ESP Fit Center  406 is at   1.864325 -2.559096  2.093760
      ESP Fit Center  407 is at   2.087206 -2.199131  2.093760
      ESP Fit Center  408 is at   2.469506 -1.782959  1.819583
      ESP Fit Center  409 is at   2.410505 -1.372597  1.819583
      ESP Fit Center  410 is at   2.238282 -0.995481  1.819583
      ESP Fit Center  411 is at   1.966789 -0.682161  1.819583
      ESP Fit Center  412 is at   1.618021 -0.458022  1.819583
      ESP Fit Center  413 is at  -0.443621 -1.782959  1.819583
      ESP Fit Center  414 is at  -0.384620 -2.193320  1.819583
      ESP Fit Center  415 is at  -0.212397 -2.570437  1.819583
      ESP Fit Center  416 is at   0.059096 -2.883756  1.819583
      ESP Fit Center  417 is at   0.407864 -3.107896  1.819583
      ESP Fit Center  418 is at   0.805652 -3.224697  1.819583
      ESP Fit Center  419 is at   1.220233 -3.224697  1.819583
      ESP Fit Center  420 is at   1.618021 -3.107896  1.819583
      ESP Fit Center  421 is at   1.966789 -2.883756  1.819583
      ESP Fit Center  422 is at   2.238282 -2.570437  1.819583
      ESP Fit Center  423 is at   2.410505 -2.193320  1.819583
      ESP Fit Center  424 is at   2.710352 -1.782959  1.488087
      ESP Fit Center  425 is at   2.657025 -1.360830  1.488087
      ESP Fit Center  426 is at  -0.671083 -1.995701  1.488087
      ESP Fit Center  427 is at  -0.565269 -2.407817  1.488087
      ESP Fit Center  428 is at  -0.360291 -2.780671  1.488087
      ESP Fit Center  429 is at  -0.069027 -3.090836  1.488087
      ESP Fit Center  430 is at   0.290221 -3.318821  1.488087
      ESP Fit Center  431 is at   0.694880 -3.450303  1.488087
      ESP Fit Center  432 is at   1.119524 -3.477019  1.488087
      ESP Fit Center  433 is at   1.537471 -3.397292  1.488087
      ESP Fit Center  434 is at   1.922460 -3.216129  1.488087
      ESP Fit Center  435 is at   2.250301 -2.944916  1.488087
      ESP Fit Center  436 is at   2.500394 -2.600692  1.488087
      ESP Fit Center  437 is at   2.657025 -2.205088  1.488087
      ESP Fit Center  438 is at   2.877013 -1.782959  1.113760
      ESP Fit Center  439 is at  -0.851128 -1.782959  1.113760
      ESP Fit Center  440 is at  -0.804392 -2.197754  1.113760
      ESP Fit Center  441 is at  -0.666527 -2.591749  1.113760
      ESP Fit Center  442 is at  -0.444447 -2.945188  1.113760
      ESP Fit Center  443 is at  -0.149286 -3.240348  1.113760
      ESP Fit Center  444 is at   0.204153 -3.462429  1.113760
      ESP Fit Center  445 is at   0.598148 -3.600294  1.113760
      ESP Fit Center  446 is at   1.012943 -3.647030  1.113760
      ESP Fit Center  447 is at   1.427737 -3.600294  1.113760
      ESP Fit Center  448 is at   1.821733 -3.462429  1.113760
      ESP Fit Center  449 is at   2.175172 -3.240348  1.113760
      ESP Fit Center  450 is at   2.470332 -2.945188  1.113760
      ESP Fit Center  451 is at   2.692412 -2.591749  1.113760
      ESP Fit Center  452 is at   2.830277 -2.197754  1.113760
      ESP Fit Center  453 is at   2.962206 -1.782959  0.712963
      ESP Fit Center  454 is at  -0.924894 -1.993711  0.712963
      ESP Fit Center  455 is at  -0.834283 -2.405362  0.712963
      ESP Fit Center  456 is at  -0.657297 -2.787909  0.712963
      ESP Fit Center  457 is at  -0.402213 -3.123466  0.712963
      ESP Fit Center  458 is at  -0.080959 -3.396342  0.712963
      ESP Fit Center  459 is at   0.291446 -3.593779  0.712963
      ESP Fit Center  460 is at   0.697587 -3.706543  0.712963
      ESP Fit Center  461 is at   1.118474 -3.729363  0.712963
      ESP Fit Center  462 is at   1.534426 -3.661171  0.712963
      ESP Fit Center  463 is at   1.925994 -3.505156  0.712963
      ESP Fit Center  464 is at   2.274869 -3.268613  0.712963
      ESP Fit Center  465 is at   2.564737 -2.962603  0.712963
      ESP Fit Center  466 is at   2.782046 -2.601433  0.712963
      ESP Fit Center  467 is at   2.916633 -2.201993  0.712963
      ESP Fit Center  468 is at  -0.834283 -2.405362  0.303211
      ESP Fit Center  469 is at  -0.657297 -2.787909  0.303211
      ESP Fit Center  470 is at  -0.402213 -3.123466  0.303211
      ESP Fit Center  471 is at  -0.080959 -3.396342  0.303211
      ESP Fit Center  472 is at   0.291446 -3.593779  0.303211
      ESP Fit Center  473 is at   0.697587 -3.706543  0.303211
      ESP Fit Center  474 is at   1.118474 -3.729363  0.303211
      ESP Fit Center  475 is at   1.534426 -3.661171  0.303211
      ESP Fit Center  476 is at   1.925994 -3.505156  0.303211
      ESP Fit Center  477 is at   2.274869 -3.268613  0.303211
      ESP Fit Center  478 is at   2.564737 -2.962603  0.303211
      ESP Fit Center  479 is at   2.782046 -2.601433  0.303211
      ESP Fit Center  480 is at   2.916633 -2.201993  0.303211
      ESP Fit Center  481 is at   2.877013 -1.782959 -0.097586
      ESP Fit Center  482 is at  -0.444447 -2.945188 -0.097586
      ESP Fit Center  483 is at  -0.149286 -3.240348 -0.097586
      ESP Fit Center  484 is at   0.204153 -3.462429 -0.097586
      ESP Fit Center  485 is at   0.598148 -3.600294 -0.097586
      ESP Fit Center  486 is at   1.012943 -3.647030 -0.097586
      ESP Fit Center  487 is at   1.427737 -3.600294 -0.097586
      ESP Fit Center  488 is at   1.821733 -3.462429 -0.097586
      ESP Fit Center  489 is at   2.175172 -3.240348 -0.097586
      ESP Fit Center  490 is at   2.470332 -2.945188 -0.097586
      ESP Fit Center  491 is at   2.692412 -2.591749 -0.097586
      ESP Fit Center  492 is at   2.830277 -2.197754 -0.097586
      ESP Fit Center  493 is at   2.710352 -1.782959 -0.471913
      ESP Fit Center  494 is at  -0.069027 -3.090836 -0.471913
      ESP Fit Center  495 is at   0.290221 -3.318821 -0.471913
      ESP Fit Center  496 is at   0.694880 -3.450303 -0.471913
      ESP Fit Center  497 is at   1.119524 -3.477019 -0.471913
      ESP Fit Center  498 is at   1.537471 -3.397292 -0.471913
      ESP Fit Center  499 is at   1.922460 -3.216129 -0.471913
      ESP Fit Center  500 is at   2.250301 -2.944916 -0.471913
      ESP Fit Center  501 is at   2.500394 -2.600692 -0.471913
      ESP Fit Center  502 is at   2.657025 -2.205088 -0.471913
      ESP Fit Center  503 is at   0.059096 -2.883756 -0.803409
      ESP Fit Center  504 is at   0.407864 -3.107896 -0.803409
      ESP Fit Center  505 is at   0.805652 -3.224697 -0.803409
      ESP Fit Center  506 is at   1.220233 -3.224697 -0.803409
      ESP Fit Center  507 is at   1.618021 -3.107896 -0.803409
      ESP Fit Center  508 is at   1.966789 -2.883756 -0.803409
      ESP Fit Center  509 is at   2.238282 -2.570437 -0.803409
      ESP Fit Center  510 is at   2.410505 -2.193320 -0.803409
      ESP Fit Center  511 is at   0.318672 -2.702322 -1.077586
      ESP Fit Center  512 is at   0.697667 -2.891039 -1.077586
      ESP Fit Center  513 is at   1.119241 -2.930104 -1.077586
      ESP Fit Center  514 is at   1.526460 -2.814240 -1.077586
      ESP Fit Center  515 is at   1.864325 -2.559096 -1.077586
      ESP Fit Center  516 is at   2.087206 -2.199131 -1.077586
      ESP Fit Center  517 is at   1.012943 -2.580163 -1.282462
      ESP Fit Center  518 is at   1.411545 -2.473358 -1.282462
      ESP Fit Center  519 is at   1.955566  0.225746  1.778849
      ESP Fit Center  520 is at   1.750721 -0.129056  1.738498
      ESP Fit Center  521 is at   3.973054  0.640350 -0.730841
      ESP Fit Center  522 is at   3.848297  1.037981 -0.730841
      ESP Fit Center  523 is at   2.670893 -1.705694 -0.730841
      ESP Fit Center  524 is at   3.045046 -1.522163 -0.730841
      ESP Fit Center  525 is at   3.895713  0.225746 -1.124786
      ESP Fit Center  526 is at   3.850353  0.642820 -1.124786
      ESP Fit Center  527 is at   3.716396  1.040393 -1.124786
      ESP Fit Center  528 is at   3.500103  1.399873 -1.124786
      ESP Fit Center  529 is at   2.864347 -1.488397 -1.124786
      ESP Fit Center  530 is at   3.211590 -1.252960 -1.124786
      ESP Fit Center  531 is at   3.500103 -0.948381 -1.124786
      ESP Fit Center  532 is at   3.716396 -0.588901 -1.124786
      ESP Fit Center  533 is at   3.850353 -0.191328 -1.124786
      ESP Fit Center  534 is at  -1.287381 -2.224331  0.291137
      ESP Fit Center  535 is at  -0.867381 -2.336870  0.291137
      ESP Fit Center  536 is at  -1.877388 -2.122239  0.024153
      ESP Fit Center  537 is at  -1.583275 -2.444866  0.024153
      ESP Fit Center  538 is at  -1.192476 -2.639460  0.024153
      ESP Fit Center  539 is at  -0.757772 -2.679742  0.024153
      ESP Fit Center  540 is at  -2.178221 -2.128137 -0.323786
      ESP Fit Center  541 is at  -1.933915 -2.486468 -0.323786
      ESP Fit Center  542 is at  -1.594843 -2.756870 -0.323786
      ESP Fit Center  543 is at  -1.191132 -2.915314 -0.323786
      ESP Fit Center  544 is at  -0.758655 -2.947724 -0.323786
      ESP Fit Center  545 is at  -2.434843 -1.916870 -0.728970
      ESP Fit Center  546 is at  -2.272729 -2.308247 -0.728970
      ESP Fit Center  547 is at  -2.014843 -2.644331 -0.728970
      ESP Fit Center  548 is at  -1.678759 -2.902217 -0.728970
      ESP Fit Center  549 is at  -1.287381 -3.064331 -0.728970
      ESP Fit Center  550 is at  -0.867381 -3.119625 -0.728970
      ESP Fit Center  551 is at  -0.447381 -3.064331 -0.728970
      ESP Fit Center  552 is at  -0.056004 -2.902217 -0.728970
      ESP Fit Center  553 is at  -2.534134 -1.707429 -1.163786
      ESP Fit Center  554 is at  -2.429406 -2.115319 -1.163786
      ESP Fit Center  555 is at  -2.226530 -2.484349 -1.163786
      ESP Fit Center  556 is at  -1.938254 -2.791332 -1.163786
      ESP Fit Center  557 is at  -1.582691 -3.016979 -1.163786
      ESP Fit Center  558 is at  -1.182182 -3.147112 -1.163786
      ESP Fit Center  559 is at  -0.761893 -3.173555 -1.163786
      ESP Fit Center  560 is at  -0.348233 -3.094645 -1.163786
      ESP Fit Center  561 is at   0.032808 -2.915341 -1.163786
      ESP Fit Center  562 is at   0.357286 -2.646909 -1.163786
      ESP Fit Center  563 is at  -2.490137 -1.496870 -1.598602
      ESP Fit Center  564 is at  -2.434843 -1.916870 -1.598602
      ESP Fit Center  565 is at  -2.272729 -2.308247 -1.598602
      ESP Fit Center  566 is at  -2.014843 -2.644331 -1.598602
      ESP Fit Center  567 is at  -1.678759 -2.902217 -1.598602
      ESP Fit Center  568 is at  -1.287381 -3.064331 -1.598602
      ESP Fit Center  569 is at  -0.867381 -3.119625 -1.598602
      ESP Fit Center  570 is at  -0.447381 -3.064331 -1.598602
      ESP Fit Center  571 is at  -0.056004 -2.902217 -1.598602
      ESP Fit Center  572 is at   0.280080 -2.644331 -1.598602
      ESP Fit Center  573 is at   0.537966 -2.308247 -1.598602
      ESP Fit Center  574 is at  -2.306054 -1.280025 -2.003786
      ESP Fit Center  575 is at  -2.306054 -1.713715 -2.003786
      ESP Fit Center  576 is at  -2.178221 -2.128137 -2.003786
      ESP Fit Center  577 is at  -1.933915 -2.486468 -2.003786
      ESP Fit Center  578 is at  -1.594843 -2.756870 -2.003786
      ESP Fit Center  579 is at  -1.191132 -2.915314 -2.003786
      ESP Fit Center  580 is at  -0.758655 -2.947724 -2.003786
      ESP Fit Center  581 is at  -0.335838 -2.851219 -2.003786
      ESP Fit Center  582 is at   0.039748 -2.634374 -2.003786
      ESP Fit Center  583 is at   0.334732 -2.316457 -2.003786
      ESP Fit Center  584 is at  -2.035094 -1.278586 -2.351725
      ESP Fit Center  585 is at  -2.035094 -1.715153 -2.351725
      ESP Fit Center  586 is at  -1.877388 -2.122239 -2.351725
      ESP Fit Center  587 is at  -1.583275 -2.444866 -2.351725
      ESP Fit Center  588 is at  -1.192476 -2.639460 -2.351725
      ESP Fit Center  589 is at  -0.757772 -2.679742 -2.351725
      ESP Fit Center  590 is at  -0.337871 -2.560269 -2.351725
      ESP Fit Center  591 is at   0.010516 -2.297179 -2.351725
      ESP Fit Center  592 is at   0.240339 -1.926003 -2.351725
      ESP Fit Center  593 is at  -1.594843 -1.076870 -2.618709
      ESP Fit Center  594 is at  -1.707381 -1.496870 -2.618709
      ESP Fit Center  595 is at  -1.594843 -1.916870 -2.618709
      ESP Fit Center  596 is at  -1.287381 -2.224331 -2.618709
      ESP Fit Center  597 is at  -0.867381 -2.336870 -2.618709
      ESP Fit Center  598 is at  -0.447381 -2.224331 -2.618709
      ESP Fit Center  599 is at  -0.139920 -1.916870 -2.618709
      ESP Fit Center  600 is at  -0.432565 -1.496870 -2.786541
      ESP Fit Center  601 is at  -1.084789 -1.120308 -2.786541
      ESP Fit Center  602 is at  -1.302197 -1.496870 -2.786541
      ESP Fit Center  603 is at  -1.084789 -1.873431 -2.786541
      ESP Fit Center  604 is at  -0.649973 -1.873431 -2.786541
      ESP Fit Center  605 is at  -0.867381 -1.496870 -2.843786
      ESP Fit Center  606 is at  -0.765689  1.649325 -1.284386
      ESP Fit Center  607 is at  -0.660490  1.732106 -1.719202
      ESP Fit Center  608 is at  -1.060998  1.601973 -1.719202
      ESP Fit Center  609 is at  -1.416561  1.376326 -1.719202
      ESP Fit Center  610 is at   0.801772  1.229325 -2.154018
      ESP Fit Center  611 is at   0.465689  1.487211 -2.154018
      ESP Fit Center  612 is at   0.074311  1.649325 -2.154018
      ESP Fit Center  613 is at  -0.345689  1.704619 -2.154018
      ESP Fit Center  614 is at  -0.765689  1.649325 -2.154018
      ESP Fit Center  615 is at  -1.157067  1.487211 -2.154018
      ESP Fit Center  616 is at  -1.493150  1.229325 -2.154018
      ESP Fit Center  617 is at   1.044595  0.510709 -2.559202
      ESP Fit Center  618 is at   0.856424  0.901450 -2.559202
      ESP Fit Center  619 is at   0.561440  1.219368 -2.559202
      ESP Fit Center  620 is at   0.185854  1.436213 -2.559202
      ESP Fit Center  621 is at  -0.236963  1.532718 -2.559202
      ESP Fit Center  622 is at  -0.669440  1.500308 -2.559202
      ESP Fit Center  623 is at  -1.073150  1.341863 -2.559202
      ESP Fit Center  624 is at  -1.412223  1.071462 -2.559202
      ESP Fit Center  625 is at  -1.656529  0.713131 -2.559202
      ESP Fit Center  626 is at  -1.784362  0.298708 -2.559202
      ESP Fit Center  627 is at  -1.784362 -0.134982 -2.559202
      ESP Fit Center  628 is at   0.856424 -0.737724 -2.559202
      ESP Fit Center  629 is at   1.044595 -0.346983 -2.559202
      ESP Fit Center  630 is at   0.842250  0.081863 -2.907141
      ESP Fit Center  631 is at   0.762031  0.510996 -2.907141
      ESP Fit Center  632 is at   0.532209  0.882173 -2.907141
      ESP Fit Center  633 is at   0.183821  1.145263 -2.907141
      ESP Fit Center  634 is at  -0.236080  1.264735 -2.907141
      ESP Fit Center  635 is at  -0.670784  1.224454 -2.907141
      ESP Fit Center  636 is at  -1.061583  1.029859 -2.907141
      ESP Fit Center  637 is at  -1.355696  0.707233 -2.907141
      ESP Fit Center  638 is at  -1.513402  0.300147 -2.907141
      ESP Fit Center  639 is at  -1.513402 -0.136420 -2.907141
      ESP Fit Center  640 is at  -1.355696 -0.543506 -2.907141
      ESP Fit Center  641 is at  -1.061583 -0.866133 -2.907141
      ESP Fit Center  642 is at  -0.670784 -1.060727 -2.907141
      ESP Fit Center  643 is at  -0.236080 -1.101009 -2.907141
      ESP Fit Center  644 is at   0.183821 -0.981536 -2.907141
      ESP Fit Center  645 is at   0.532209 -0.718446 -2.907141
      ESP Fit Center  646 is at   0.762031 -0.347270 -2.907141
      ESP Fit Center  647 is at   0.494311  0.081863 -3.174125
      ESP Fit Center  648 is at   0.381772  0.501863 -3.174125
      ESP Fit Center  649 is at   0.074311  0.809325 -3.174125
      ESP Fit Center  650 is at  -0.345689  0.921863 -3.174125
      ESP Fit Center  651 is at  -0.765689  0.809325 -3.174125
      ESP Fit Center  652 is at  -1.073150  0.501863 -3.174125
      ESP Fit Center  653 is at  -1.185689  0.081863 -3.174125
      ESP Fit Center  654 is at  -1.073150 -0.338137 -3.174125
      ESP Fit Center  655 is at  -0.765689 -0.645598 -3.174125
      ESP Fit Center  656 is at  -0.345689 -0.758137 -3.174125
      ESP Fit Center  657 is at   0.074311 -0.645598 -3.174125
      ESP Fit Center  658 is at   0.381772 -0.338137 -3.174125
      ESP Fit Center  659 is at   0.089127  0.081863 -3.341957
      ESP Fit Center  660 is at  -0.128281  0.458425 -3.341957
      ESP Fit Center  661 is at  -0.563097  0.458425 -3.341957
      ESP Fit Center  662 is at  -0.780505  0.081863 -3.341957
      ESP Fit Center  663 is at  -0.563097 -0.294698 -3.341957
      ESP Fit Center  664 is at  -0.128281 -0.294698 -3.341957
      ESP Fit Center  665 is at  -0.345689  0.081863 -3.399202
      ESP Fit Center  666 is at   3.899689  0.217752 -1.376319
      ESP Fit Center  667 is at   3.846909  0.635551 -1.376319
      ESP Fit Center  668 is at   3.691884  1.027098 -1.376319
      ESP Fit Center  669 is at   3.444356  1.367791 -1.376319
      ESP Fit Center  670 is at   3.119878 -1.200719 -1.376319
      ESP Fit Center  671 is at   3.444356 -0.932287 -1.376319
      ESP Fit Center  672 is at   3.691884 -0.591594 -1.376319
      ESP Fit Center  673 is at   3.846909 -0.200047 -1.376319
      ESP Fit Center  674 is at   3.842444  0.217752 -1.811135
      ESP Fit Center  675 is at   3.787150  0.637752 -1.811135
      ESP Fit Center  676 is at   3.625036  1.029130 -1.811135
      ESP Fit Center  677 is at   3.367150  1.365213 -1.811135
      ESP Fit Center  678 is at   3.031067  1.623099 -1.811135
      ESP Fit Center  679 is at   2.639689  1.785213 -1.811135
      ESP Fit Center  680 is at   2.219689 -1.405003 -1.811135
      ESP Fit Center  681 is at   2.639689 -1.349709 -1.811135
      ESP Fit Center  682 is at   3.031067 -1.187595 -1.811135
      ESP Fit Center  683 is at   3.367150 -0.929709 -1.811135
      ESP Fit Center  684 is at   3.625036 -0.593626 -1.811135
      ESP Fit Center  685 is at   3.787150 -0.202248 -1.811135
      ESP Fit Center  686 is at   3.674612  0.217752 -2.216319
      ESP Fit Center  687 is at   3.609973  0.646598 -2.216319
      ESP Fit Center  688 is at   3.421802  1.037339 -2.216319
      ESP Fit Center  689 is at   3.126818  1.355256 -2.216319
      ESP Fit Center  690 is at   2.751232  1.572101 -2.216319
      ESP Fit Center  691 is at   2.328415  1.668606 -2.216319
      ESP Fit Center  692 is at   1.895938  1.636197 -2.216319
      ESP Fit Center  693 is at   1.492228  1.477752 -2.216319
      ESP Fit Center  694 is at   1.153155  1.207351 -2.216319
      ESP Fit Center  695 is at   1.492228 -1.042248 -2.216319
      ESP Fit Center  696 is at   1.895938 -1.200693 -2.216319
      ESP Fit Center  697 is at   2.328415 -1.233103 -2.216319
      ESP Fit Center  698 is at   2.751232 -1.136597 -2.216319
      ESP Fit Center  699 is at   3.126818 -0.919752 -2.216319
      ESP Fit Center  700 is at   3.421802 -0.601835 -2.216319
      ESP Fit Center  701 is at   3.609973 -0.211094 -2.216319
      ESP Fit Center  702 is at   3.407628  0.217752 -2.564258
      ESP Fit Center  703 is at   3.327409  0.646885 -2.564258
      ESP Fit Center  704 is at   3.097587  1.018061 -2.564258
      ESP Fit Center  705 is at   2.749199  1.281152 -2.564258
      ESP Fit Center  706 is at   2.329298  1.400624 -2.564258
      ESP Fit Center  707 is at   1.894594  1.360342 -2.564258
      ESP Fit Center  708 is at   1.503795  1.165748 -2.564258
      ESP Fit Center  709 is at   1.209682  0.843121 -2.564258
      ESP Fit Center  710 is at   1.209682 -0.407618 -2.564258
      ESP Fit Center  711 is at   1.503795 -0.730244 -2.564258
      ESP Fit Center  712 is at   1.894594 -0.924839 -2.564258
      ESP Fit Center  713 is at   2.329298 -0.965120 -2.564258
      ESP Fit Center  714 is at   2.749199 -0.845648 -2.564258
      ESP Fit Center  715 is at   3.097587 -0.582558 -2.564258
      ESP Fit Center  716 is at   3.327409 -0.211381 -2.564258
      ESP Fit Center  717 is at   3.059689  0.217752 -2.831242
      ESP Fit Center  718 is at   2.947150  0.637752 -2.831242
      ESP Fit Center  719 is at   2.639689  0.945213 -2.831242
      ESP Fit Center  720 is at   2.219689  1.057752 -2.831242
      ESP Fit Center  721 is at   1.799689  0.945213 -2.831242
      ESP Fit Center  722 is at   1.492228  0.637752 -2.831242
      ESP Fit Center  723 is at   1.379689  0.217752 -2.831242
      ESP Fit Center  724 is at   1.492228 -0.202248 -2.831242
      ESP Fit Center  725 is at   1.799689 -0.509709 -2.831242
      ESP Fit Center  726 is at   2.219689 -0.622248 -2.831242
      ESP Fit Center  727 is at   2.639689 -0.509709 -2.831242
      ESP Fit Center  728 is at   2.947150 -0.202248 -2.831242
      ESP Fit Center  729 is at   2.654505  0.217752 -2.999074
      ESP Fit Center  730 is at   2.437097  0.594314 -2.999074
      ESP Fit Center  731 is at   2.002281  0.594314 -2.999074
      ESP Fit Center  732 is at   1.784873  0.217752 -2.999074
      ESP Fit Center  733 is at   2.002281 -0.158810 -2.999074
      ESP Fit Center  734 is at   2.437097 -0.158810 -2.999074
      ESP Fit Center  735 is at   2.219689  0.217752 -3.056319
      ESP Fit Center  736 is at   2.813414 -0.125554  1.919018
      ESP Fit Center  737 is at   3.248230 -0.125554  1.861773
      ESP Fit Center  738 is at   3.030822  0.251008  1.861773
      ESP Fit Center  739 is at   2.596006  0.251008  1.861773
      ESP Fit Center  740 is at   2.378598 -0.125554  1.861773
      ESP Fit Center  741 is at   2.596006 -0.502116  1.861773
      ESP Fit Center  742 is at   3.030822 -0.502116  1.861773
      ESP Fit Center  743 is at   3.653414 -0.125554  1.693941
      ESP Fit Center  744 is at   3.540875  0.294446  1.693941
      ESP Fit Center  745 is at   3.233414  0.601907  1.693941
      ESP Fit Center  746 is at   2.813414  0.714446  1.693941
      ESP Fit Center  747 is at   2.085953 -0.545554  1.693941
      ESP Fit Center  748 is at   2.393414 -0.853016  1.693941
      ESP Fit Center  749 is at   2.813414 -0.965554  1.693941
      ESP Fit Center  750 is at   3.233414 -0.853016  1.693941
      ESP Fit Center  751 is at   3.540875 -0.545554  1.693941
      ESP Fit Center  752 is at   4.001353 -0.125554  1.426957
      ESP Fit Center  753 is at   3.921134  0.303579  1.426957
      ESP Fit Center  754 is at   3.691312  0.674755  1.426957
      ESP Fit Center  755 is at   3.342924  0.937846  1.426957
      ESP Fit Center  756 is at   2.923023 -1.308426  1.426957
      ESP Fit Center  757 is at   3.342924 -1.188954  1.426957
      ESP Fit Center  758 is at   3.691312 -0.925864  1.426957
      ESP Fit Center  759 is at   3.921134 -0.554687  1.426957
      ESP Fit Center  760 is at   4.268337 -0.125554  1.079018
      ESP Fit Center  761 is at   4.203698  0.303292  1.079018
      ESP Fit Center  762 is at   4.015527  0.694033  1.079018
      ESP Fit Center  763 is at   3.720543  1.011950  1.079018
      ESP Fit Center  764 is at   2.922140 -1.576409  1.079018
      ESP Fit Center  765 is at   3.344957 -1.479904  1.079018
      ESP Fit Center  766 is at   3.720543 -1.263059  1.079018
      ESP Fit Center  767 is at   4.015527 -0.945141  1.079018
      ESP Fit Center  768 is at   4.203698 -0.554400  1.079018
[...]
 4292 Fit      -0.065154
 4293 Fit      -0.064205
 4294 Fit      -0.063504
 4295 Fit      -0.092705
 4296 Fit      -0.086380
 4297 Fit      -0.065335
 4298 Fit      -0.064077
 4299 Fit      -0.063167
 4300 Fit      -0.062557
 4301 Fit      -0.089030
 4302 Fit      -0.083644
 4303 Fit      -0.079005
 4304 Fit      -0.075075
 4305 Fit      -0.071802
 4306 Fit      -0.069131
 4307 Fit      -0.066998
 4308 Fit      -0.064230
 4309 Fit      -0.063033
 4310 Fit      -0.062226
 4311 Fit      -0.061795
 4312 Fit      -0.085930
 4313 Fit      -0.081331
 4314 Fit      -0.077191
 4315 Fit      -0.073572
 4316 Fit      -0.070486
 4317 Fit      -0.067921
 4318 Fit      -0.065848
 4319 Fit      -0.082509
 4320 Fit      -0.078765
 4321 Fit      -0.152408
 4322 Fit      -0.149253
 4323 Fit      -0.150352
 4324 Fit      -0.145809
 4325 Fit      -0.140289
 4326 Fit      -0.137967
 4327 Fit      -0.138779
 4328 Fit      -0.139606
 4329 Fit      -0.133034
 4330 Fit      -0.129347
 4331 Fit      -0.128237
 4332 Fit      -0.129662
 4333 Fit      -0.145010
 4334 Fit      -0.134543
 4335 Fit      -0.127404
 4336 Fit      -0.122850
 4337 Fit      -0.120474
 4338 Fit      -0.120074
 4339 Fit      -0.121590
 4340 Fit      -0.125060
 4341 Fit      -0.145974
 4342 Fit      -0.133957
 4343 Fit      -0.125421
 4344 Fit      -0.119485
 4345 Fit      -0.115625
 4346 Fit      -0.113526
 4347 Fit      -0.112994
 4348 Fit      -0.113910
 4349 Fit      -0.116175
 4350 Fit      -0.145225
 4351 Fit      -0.132380
 4352 Fit      -0.123047
 4353 Fit      -0.116345
 4354 Fit      -0.111712
 4355 Fit      -0.108785
 4356 Fit      -0.107312
 4357 Fit      -0.107105
 4358 Fit      -0.107983
 4359 Fit      -0.109716
 4360 Fit      -0.111943
 4361 Fit      -0.136156
 4362 Fit      -0.125009
 4363 Fit      -0.116721
 4364 Fit      -0.110692
 4365 Fit      -0.106494
 4366 Fit      -0.103814
 4367 Fit      -0.102405
 4368 Fit      -0.102038
 4369 Fit      -0.102454
 4370 Fit      -0.103299
 4371 Fit      -0.104056
 4372 Fit      -0.139513
 4373 Fit      -0.127698
 4374 Fit      -0.118377
 4375 Fit      -0.111238
 4376 Fit      -0.105949
 4377 Fit      -0.102214
 4378 Fit      -0.099777
 4379 Fit      -0.098395
 4380 Fit      -0.097808
 4381 Fit      -0.097694
 4382 Fit      -0.097632
 4383 Fit      -0.097078
 4384 Fit      -0.128816
 4385 Fit      -0.119214
 4386 Fit      -0.111381
 4387 Fit      -0.105327
 4388 Fit      -0.100882
 4389 Fit      -0.097814
 4390 Fit      -0.095859
 4391 Fit      -0.094711
 4392 Fit      -0.093991
 4393 Fit      -0.093241
 4394 Fit      -0.091954
 4395 Fit      -0.119585
 4396 Fit      -0.111947
 4397 Fit      -0.105498
 4398 Fit      -0.100485
 4399 Fit      -0.096851
 4400 Fit      -0.094378
 4401 Fit      -0.092748
 4402 Fit      -0.091557
 4403 Fit      -0.090362
 4404 Fit      -0.114748
 4405 Fit      -0.108493
 4406 Fit      -0.102637
 4407 Fit      -0.097941
 4408 Fit      -0.094547
 4409 Fit      -0.092235
 4410 Fit      -0.090596
 4411 Fit      -0.089204
 4412 Fit      -0.107385
 4413 Fit      -0.102187
 4414 Fit      -0.097202
 4415 Fit      -0.093548
 4416 Fit      -0.091200
 4417 Fit      -0.096767
 4418 Fit      -0.131746
 4419 Fit      -0.106955
 4420 Fit      -0.117609
 4421 Fit      -0.130177
 4422 Fit      -0.080229
 4423 Fit      -0.085157
 4424 Fit      -0.091033
 4425 Fit      -0.098097
 4426 Fit      -0.106448
 4427 Fit      -0.116059
 4428 Fit      -0.126686
 4429 Fit      -0.074111
 4430 Fit      -0.077960
 4431 Fit      -0.082538
 4432 Fit      -0.088020
 4433 Fit      -0.094547
 4434 Fit      -0.102114
 4435 Fit      -0.110499
 4436 Fit      -0.119137
 4437 Fit      -0.126982
 4438 Fit      -0.132571
 4439 Fit      -0.134534
 4440 Fit      -0.071758
 4441 Fit      -0.071965
 4442 Fit      -0.073728
 4443 Fit      -0.076712
 4444 Fit      -0.080708
 4445 Fit      -0.085680
 4446 Fit      -0.091610
 4447 Fit      -0.098327
 4448 Fit      -0.105375
 4449 Fit      -0.111915
 4450 Fit      -0.116775
 4451 Fit      -0.118833
 4452 Fit      -0.117643
 4453 Fit      -0.113745
 4454 Fit      -0.079606
 4455 Fit      -0.075990
 4456 Fit      -0.073209
 4457 Fit      -0.074569
 4458 Fit      -0.074905
 4459 Fit      -0.076948
 4460 Fit      -0.080453
 4461 Fit      -0.085190
 4462 Fit      -0.090874
 4463 Fit      -0.096957
 4464 Fit      -0.102477
 4465 Fit      -0.106184
 4466 Fit      -0.107078
 4467 Fit      -0.105072
 4468 Fit      -0.101036
 4469 Fit      -0.096158
 4470 Fit      -0.091278
 4471 Fit      -0.086706
 4472 Fit      -0.082487
 4473 Fit      -0.078778
 4474 Fit      -0.075971
 4475 Fit      -0.077611
 4476 Fit      -0.078398
 4477 Fit      -0.081565
 4478 Fit      -0.086510
 4479 Fit      -0.092120
 4480 Fit      -0.096615
 4481 Fit      -0.098162
 4482 Fit      -0.096260
 4483 Fit      -0.092105
 4484 Fit      -0.087272
 4485 Fit      -0.082753
 4486 Fit      -0.079259
 4487 Fit      -0.081211
 4488 Fit      -0.083296
 4489 Fit      -0.088385
 4490 Fit      -0.091174
 4491 Fit      -0.088582
 4492 Fit      -0.083785
 4493 Fit      -0.085638
 4494 Fit      -0.063924
 4495 Fit      -0.062753
 4496 Fit      -0.067680
 4497 Fit      -0.065555
 4498 Fit      -0.062277
 4499 Fit      -0.061281
 4500 Fit      -0.060745
 4501 Fit      -0.060690
 4502 Fit      -0.061174
 4503 Fit      -0.077422
 4504 Fit      -0.074035
 4505 Fit      -0.070857
 4506 Fit      -0.068039
 4507 Fit      -0.065655
 4508 Fit      -0.063734
 4509 Fit      -0.061056
 4510 Fit      -0.060241
 4511 Fit      -0.059901
 4512 Fit      -0.060071
 4513 Fit      -0.060809
 4514 Fit      -0.062193
 4515 Fit      -0.064287
 4516 Fit      -0.076718
 4517 Fit      -0.074107
 4518 Fit      -0.071326
 4519 Fit      -0.068617
 4520 Fit      -0.066153
 4521 Fit      -0.064037
 4522 Fit      -0.062328
 4523 Fit      -0.060300
 4524 Fit      -0.059632
 4525 Fit      -0.059516
 4526 Fit      -0.059998
 4527 Fit      -0.061127
 4528 Fit      -0.062937
 4529 Fit      -0.065384
 4530 Fit      -0.068310
 4531 Fit      -0.071451
 4532 Fit      -0.074504
 4533 Fit      -0.074574
 4534 Fit      -0.072419
 4535 Fit      -0.070000
 4536 Fit      -0.067517
 4537 Fit      -0.065173
 4538 Fit      -0.063126
 4539 Fit      -0.061480
 4540 Fit      -0.060039
 4541 Fit      -0.059531
 4542 Fit      -0.059659
 4543 Fit      -0.060467
 4544 Fit      -0.061971
 4545 Fit      -0.064119
 4546 Fit      -0.066750
 4547 Fit      -0.069592
 4548 Fit      -0.072287
 4549 Fit      -0.074947
 4550 Fit      -0.073208
 4551 Fit      -0.071286
 4552 Fit      -0.069157
 4553 Fit      -0.066898
 4554 Fit      -0.064686
 4555 Fit      -0.062710
 4556 Fit      -0.061124
 4557 Fit      -0.060296
 4558 Fit      -0.059966
 4559 Fit      -0.060443
 4560 Fit      -0.061743
 4561 Fit      -0.063771
 4562 Fit      -0.066280
 4563 Fit      -0.068869
 4564 Fit      -0.071049
 4565 Fit      -0.072604
 4566 Fit      -0.071162
 4567 Fit      -0.069297
 4568 Fit      -0.067197
 4569 Fit      -0.065021
 4570 Fit      -0.062992
 4571 Fit      -0.061351
 4572 Fit      -0.061095
 4573 Fit      -0.061041
 4574 Fit      -0.062199
 4575 Fit      -0.064336
 4576 Fit      -0.066836
 4577 Fit      -0.068870
 4578 Fit      -0.069876
 4579 Fit      -0.069703
 4580 Fit      -0.068415
 4581 Fit      -0.066415
 4582 Fit      -0.064195
 4583 Fit      -0.062259
 4584 Fit      -0.062454
 4585 Fit      -0.063071
 4586 Fit      -0.065338
 4587 Fit      -0.066879
 4588 Fit      -0.066160
 4589 Fit      -0.063995
 4590 Fit      -0.064385
 4591 Fit      -0.113754
 4592 Fit      -0.104304
 4593 Fit      -0.105495
 4594 Fit      -0.123841
 4595 Fit      -0.112576
 4596 Fit      -0.096375
 4597 Fit      -0.095437
 4598 Fit      -0.098653
 4599 Fit      -0.124430
 4600 Fit      -0.111458
 4601 Fit      -0.101708
 4602 Fit      -0.089758
 4603 Fit      -0.088450
 4604 Fit      -0.089533
 4605 Fit      -0.110338
 4606 Fit      -0.100369
 4607 Fit      -0.093629
 4608 Fit      -0.084279
 4609 Fit      -0.082928
 4610 Fit      -0.083243
 4611 Fit      -0.085210
 4612 Fit      -0.111131
 4613 Fit      -0.100368
 4614 Fit      -0.092658
 4615 Fit      -0.087433
 4616 Fit      -0.079792
 4617 Fit      -0.078464
 4618 Fit      -0.078411
 4619 Fit      -0.079613
 4620 Fit      -0.114160
 4621 Fit      -0.102008
 4622 Fit      -0.093179
 4623 Fit      -0.086862
 4624 Fit      -0.082517
 4625 Fit      -0.076176
 4626 Fit      -0.074904
 4627 Fit      -0.074603
 4628 Fit      -0.075233
 4629 Fit      -0.103840
 4630 Fit      -0.094267
 4631 Fit      -0.087238
 4632 Fit      -0.082125
 4633 Fit      -0.078526
 4634 Fit      -0.073330
 4635 Fit      -0.072079
 4636 Fit      -0.071654
 4637 Fit      -0.071992
 4638 Fit      -0.073080
 4639 Fit      -0.109722
 4640 Fit      -0.098123
 4641 Fit      -0.089641
 4642 Fit      -0.083378
 4643 Fit      -0.078784
 4644 Fit      -0.075513
 4645 Fit      -0.071163
 4646 Fit      -0.069946
 4647 Fit      -0.069414
 4648 Fit      -0.069487
 4649 Fit      -0.070095
 4650 Fit      -0.102569
 4651 Fit      -0.092830
 4652 Fit      -0.085581
 4653 Fit      -0.080145
 4654 Fit      -0.076100
 4655 Fit      -0.073169
 4656 Fit      -0.069595
 4657 Fit      -0.068396
 4658 Fit      -0.067786
 4659 Fit      -0.067671
 4660 Fit      -0.067935
 4661 Fit      -0.097625
 4662 Fit      -0.089158
 4663 Fit      -0.082744
 4664 Fit      -0.077865
 4665 Fit      -0.074187
 4666 Fit      -0.071484
 4667 Fit      -0.068543
 4668 Fit      -0.067323
 4669 Fit      -0.066654
 4670 Fit      -0.066419
 4671 Fit      -0.095730
 4672 Fit      -0.087633
 4673 Fit      -0.081436
 4674 Fit      -0.076686
 4675 Fit      -0.073085
 4676 Fit      -0.070422
 4677 Fit      -0.067918
 4678 Fit      -0.066661
 4679 Fit      -0.065934
 4680 Fit      -0.094780
 4681 Fit      -0.086957
 4682 Fit      -0.080856
 4683 Fit      -0.076127
 4684 Fit      -0.072514
 4685 Fit      -0.069827
 4686 Fit      -0.067612
 4687 Fit      -0.080202
 4688 Fit      -0.075689
 4689 Fit      -0.072174
 4690 Fit      -0.069523
 4691 Fit      -0.087296
 4692 Fit      -0.085365
 4693 Fit      -0.084495
 4694 Fit      -0.084618
 4695 Fit      -0.095122
 4696 Fit      -0.090451
 4697 Fit      -0.083150
 4698 Fit      -0.081404
 4699 Fit      -0.080500
 4700 Fit      -0.080405
 4701 Fit      -0.081123
 4702 Fit      -0.082664
 4703 Fit      -0.085048
 4704 Fit      -0.088320
 4705 Fit      -0.085849
 4706 Fit      -0.079323
 4707 Fit      -0.077752
 4708 Fit      -0.076828
 4709 Fit      -0.080004
 4710 Fit      -0.082580
 4711 Fit      -0.085890
 4712 Fit      -0.090020
 4713 Fit      -0.095129
 4714 Fit      -0.101463
 4715 Fit      -0.109359
 4716 Fit      -0.081583
 4717 Fit      -0.075828
 4718 Fit      -0.080976
 4719 Fit      -0.084497
 4720 Fit      -0.088732
 4721 Fit      -0.093841
 4722 Fit      -0.100058
 4723 Fit      -0.107699
 4724 Fit      -0.117196
 4725 Fit      -0.129148
 4726 Fit      -0.144430
 4727 Fit      -0.083342
 4728 Fit      -0.087584
 4729 Fit      -0.092585
 4730 Fit      -0.098560
 4731 Fit      -0.105795
 4732 Fit      -0.114663
 4733 Fit      -0.125672
 4734 Fit      -0.139521
 4735 Fit      -0.083362
 4736 Fit      -0.087761
 4737 Fit      -0.092881
 4738 Fit      -0.098941
 4739 Fit      -0.106223
 4740 Fit      -0.115093
 4741 Fit      -0.081550
 4742 Fit      -0.085895
 4743 Fit      -0.090883
 4744 Fit      -0.096730
 4745 Fit      -0.103712
 4746 Fit      -0.080002
 4747 Fit      -0.084220
 4748 Fit      -0.088992
 4749 Fit      -0.094518
 4750 Fit      -0.078715
 4751 Fit      -0.082732
 4752 Fit      -0.087209
 4753 Fit      -0.079549
 4754 Fit      -0.083662
 4755 Fit      -0.077675
 4756 Fit      -0.081611
 4757 Fit      -0.076028
 4758 Fit      -0.079744
 4759 Fit      -0.072083
 4760 Fit      -0.075415
 4761 Fit      -0.071676
 4762 Fit      -0.074873
 4763 Fit      -0.065084
 4764 Fit      -0.067027
 4765 Fit      -0.069552
 4766 Fit      -0.072596
 4767 Fit      -0.076054
 4768 Fit      -0.067178
 4769 Fit      -0.069727
 4770 Fit      -0.072817
 4771 Fit      -0.076307
 4772 Fit      -0.070312
 4773 Fit      -0.073745
 4774 Fit      -0.074422
 4775 Fit      -0.075054
 4776 Fit      -0.074633
 4777 Fit      -0.075412
 4778 Fit      -0.077420
 4779 Fit      -0.072713
 4780 Fit      -0.071215
 4781 Fit      -0.070624
 4782 Fit      -0.070958
 4783 Fit      -0.072244
 4784 Fit      -0.074518
 4785 Fit      -0.077835
 4786 Fit      -0.069375
 4787 Fit      -0.068018
 4788 Fit      -0.067360
 4789 Fit      -0.067419
 4790 Fit      -0.068218
 4791 Fit      -0.069782
 4792 Fit      -0.072150
 4793 Fit      -0.075370
 4794 Fit      -0.079511
 4795 Fit      -0.071401
 4796 Fit      -0.066622
 4797 Fit      -0.065360
 4798 Fit      -0.064710
 4799 Fit      -0.064694
 4800 Fit      -0.065333
 4801 Fit      -0.066650
 4802 Fit      -0.068678
 4803 Fit      -0.071458
 4804 Fit      -0.075043
 4805 Fit      -0.079506
 4806 Fit      -0.068462
 4807 Fit      -0.064424
 4808 Fit      -0.063274
 4809 Fit      -0.062656
 4810 Fit      -0.062592
 4811 Fit      -0.063099
 4812 Fit      -0.064199
 4813 Fit      -0.065918
 4814 Fit      -0.068288
 4815 Fit      -0.071349
 4816 Fit      -0.075153
 4817 Fit      -0.068168
 4818 Fit      -0.066075
 4819 Fit      -0.062744
 4820 Fit      -0.061700
 4821 Fit      -0.061140
 4822 Fit      -0.061084
 4823 Fit      -0.061550
 4824 Fit      -0.062559
 4825 Fit      -0.064134
 4826 Fit      -0.066300
 4827 Fit      -0.069092
 4828 Fit      -0.072547
 4829 Fit      -0.076712
 4830 Fit      -0.066176
 4831 Fit      -0.064248
 4832 Fit      -0.061545
 4833 Fit      -0.060592
 4834 Fit      -0.060121
 4835 Fit      -0.060155
 4836 Fit      -0.060715
 4837 Fit      -0.061824
 4838 Fit      -0.063506
 4839 Fit      -0.065787
 4840 Fit      -0.068697
 4841 Fit      -0.072269
 4842 Fit      -0.076532
 4843 Fit      -0.062961
 4844 Fit      -0.060795
 4845 Fit      -0.059953
 4846 Fit      -0.059607
 4847 Fit      -0.059787
 4848 Fit      -0.060519
 4849 Fit      -0.061830
 4850 Fit      -0.063747
 4851 Fit      -0.066293
 4852 Fit      -0.069495
 4853 Fit      -0.073367
 4854 Fit      -0.062104
 4855 Fit      -0.060464
 4856 Fit      -0.059786
 4857 Fit      -0.059598
 4858 Fit      -0.059944
 4859 Fit      -0.060858
 4860 Fit      -0.062369
 4861 Fit      -0.064501
 4862 Fit      -0.067273
 4863 Fit      -0.070688
 4864 Fit      -0.074726
 4865 Fit      -0.061584
 4866 Fit      -0.060538
 4867 Fit      -0.060058
 4868 Fit      -0.060119
 4869 Fit      -0.060792
 4870 Fit      -0.062126
 4871 Fit      -0.064154
 4872 Fit      -0.066888
 4873 Fit      -0.070312
 4874 Fit      -0.061454
 4875 Fit      -0.061021
 4876 Fit      -0.060816
 4877 Fit      -0.061202
 4878 Fit      -0.062290
 4879 Fit      -0.064138
 4880 Fit      -0.066756
 4881 Fit      -0.070097
 4882 Fit      -0.061623
 4883 Fit      -0.061945
 4884 Fit      -0.062102
 4885 Fit      -0.062997
 4886 Fit      -0.064782
 4887 Fit      -0.067469
 4888 Fit      -0.063382
 4889 Fit      -0.064088
 4890 Fit      -0.065971
 4891 Fit      -0.117511
 4892 Fit      -0.109837
 4893 Fit      -0.109270
 4894 Fit      -0.116999
 4895 Fit      -0.127081
 4896 Fit      -0.127787
 4897 Fit      -0.118300
 4898 Fit      -0.103645
 4899 Fit      -0.101260
 4900 Fit      -0.102683
 4901 Fit      -0.107888
 4902 Fit      -0.116716
 4903 Fit      -0.128156
 4904 Fit      -0.139079
 4905 Fit      -0.144235
 4906 Fit      -0.140579
 4907 Fit      -0.130749
 4908 Fit      -0.119408
 4909 Fit      -0.109839
 4910 Fit      -0.098610
 4911 Fit      -0.096048
 4912 Fit      -0.095680
 4913 Fit      -0.097446
 4914 Fit      -0.101411
 4915 Fit      -0.107739
 4916 Fit      -0.116613
 4917 Fit      -0.128021
 4918 Fit      -0.141271
 4919 Fit      -0.156478
 4920 Fit      -0.145097
 4921 Fit      -0.132611
 4922 Fit      -0.120870
 4923 Fit      -0.110985
 4924 Fit      -0.103535
 4925 Fit      -0.094468
 4926 Fit      -0.091990
 4927 Fit      -0.091093
 4928 Fit      -0.091684
 4929 Fit      -0.093768
 4930 Fit      -0.097439
 4931 Fit      -0.102879
 4932 Fit      -0.110357
 4933 Fit      -0.120202
 4934 Fit      -0.132714
 4935 Fit      -0.147910
 4936 Fit      -0.151611
 4937 Fit      -0.137496
 4938 Fit      -0.124668
 4939 Fit      -0.113723
 4940 Fit      -0.105072
 4941 Fit      -0.098734
 4942 Fit      -0.090991
 4943 Fit      -0.088671
 4944 Fit      -0.087618
 4945 Fit      -0.087734
 4946 Fit      -0.089002
 4947 Fit      -0.091465
 4948 Fit      -0.095234
 4949 Fit      -0.100495
 4950 Fit      -0.107530
 4951 Fit      -0.116727
 4952 Fit      -0.128587
 4953 Fit      -0.143705
 4954 Fit      -0.146268
 4955 Fit      -0.131531
 4956 Fit      -0.118674
 4957 Fit      -0.108268
 4958 Fit      -0.100408
 4959 Fit      -0.094789
 4960 Fit      -0.087173
 4961 Fit      -0.089855
 4962 Fit      -0.093615
 4963 Fit      -0.098624
 4964 Fit      -0.105140
 4965 Fit      -0.113523
 4966 Fit      -0.124273
 4967 Fit      -0.138082
 4968 Fit      -0.100283
 4969 Fit      -0.107537
 4970 Fit      -0.116815
 4971 Fit      -0.128740
 4972 Fit      -0.144232
 4973 Fit      -0.139914
 4974 Fit      -0.157375
 4975 Fit      -0.114411
 4976 Fit      -0.124953
 4977 Fit      -0.138439
 4978 Fit      -0.098495
 4979 Fit      -0.104951
 4980 Fit      -0.113119
 4981 Fit      -0.123471
 4982 Fit      -0.136588
 4983 Fit      -0.093797
 4984 Fit      -0.099368
 4985 Fit      -0.106359
 4986 Fit      -0.115152
 4987 Fit      -0.126230
 4988 Fit      -0.140190
 4989 Fit      -0.087981
 4990 Fit      -0.092557
 4991 Fit      -0.098286
 4992 Fit      -0.105488
 4993 Fit      -0.114552
 4994 Fit      -0.125968
 4995 Fit      -0.140322
 4996 Fit      -0.084230
 4997 Fit      -0.088281
 4998 Fit      -0.093359
 4999 Fit      -0.099750
 5000 Fit      -0.107785
 5001 Fit      -0.117855
 5002 Fit      -0.130382
 5003 Fit      -0.081225
 5004 Fit      -0.084755
 5005 Fit      -0.089169
 5006 Fit      -0.094704
 5007 Fit      -0.101610
 5008 Fit      -0.110138
 5009 Fit      -0.120476
 5010 Fit      -0.132545
 5011 Fit      -0.080215
 5012 Fit      -0.083819
 5013 Fit      -0.088381
 5014 Fit      -0.094113
 5015 Fit      -0.101182
 5016 Fit      -0.109619
 5017 Fit      -0.119077
 5018 Fit      -0.079565
 5019 Fit      -0.083202
 5020 Fit      -0.087819
 5021 Fit      -0.093528
 5022 Fit      -0.100249
 5023 Fit      -0.107466
 5024 Fit      -0.076877
 5025 Fit      -0.079953
 5026 Fit      -0.083955
 5027 Fit      -0.088945
 5028 Fit      -0.094637
 5029 Fit      -0.100043
 5030 Fit      -0.077846
 5031 Fit      -0.081593
 5032 Fit      -0.086370
 5033 Fit      -0.091167
 5034 Fit      -0.079210
 5035 Fit      -0.083709
 5036 Fit      -0.080892
 -----------------------------------------------------------------
 Leave Link  602 at Mon Dec 12 11:44:12 2022, MaxMem=   134217728 cpu:         0.2

 Test job not archived.
 1\1\NSC-N1278\SP\RHF\6-31G(d)\C5H7O3(1-)\X_GABOA\12-Dec-2022\0\\#HF/6-
 31G* scrf=smd SCF=tight Test Pop=MK iop(6/33=2) iop(6/42=6) # iop(6/50
 =1)\\calc RESP charges\\-1,1\O,0,1.25031,0.276263,-1.263769\C,0,1.5291
 49,0.111179,-0.065632\O,0,2.597935,0.414128,0.485865\C,0,0.473275,-0.5
 39209,0.840972\C,0,-0.844795,-0.782557,0.145335\O,0,-1.012943,-1.78295
 9,-0.508087\C,0,-1.955566,0.225746,0.321151\H,0,0.867381,-1.49687,1.16
 3786\H,0,0.345689,0.081863,1.719202\H,0,-2.219689,0.217752,1.376319\H,
 0,-2.813414,-0.125554,-0.239018\C,0,-1.590803,1.653614,-0.096914\H,0,-
 2.438649,2.307196,0.075621\H,0,-1.338066,1.702319,-1.14974\H,0,-0.7532
 36,2.041187,0.472291\\Version=ES64L-G09RevE.01\State=1-A\HF=-418.16052
 35\RMSD=7.623e-09\Dipole=-3.7914169,0.5220867,2.0630447\Quadrupole=-8.
 6015931,3.8386995,4.7628936,-7.5160495,-1.0214221,-1.9518517\PG=C01 [X
 (C5H7O3)]\\@


 THERE IS MORE TO LIFE THAN INCREASING ITS SPEED.

                                       -- GANDHI
 Job cpu time:       0 days  0 hours  0 minutes  8.8 seconds.
 File lengths (MBytes):  RWF=     33 Int=      0 D2E=      0 Chk=      8 Scr=      1
 Normal termination of Gaussian 09 at Mon Dec 12 11:44:12 2022.
