 Entering Gaussian System, Link 0=/software/sse/easybuild/prefix/software/Gaussian/09.E.01-avx-nsc1-bdist/g09/g09.orig
 Input=tyr-.wrap
 Output=tyr-.log
 Initial command:
 /software/sse/easybuild/prefix/software/Gaussian/09.E.01-avx-nsc1-bdist/g09/l1.exe "/scratch/local/Gau-9591.inp" -scrdir="/scratch/local/"
 Entering Link 1 = /software/sse/easybuild/prefix/software/Gaussian/09.E.01-avx-nsc1-bdist/g09/l1.exe PID=      9592.
  
 Copyright (c) 1988,1990,1992,1993,1995,1998,2003,2009,2015,
            Gaussian, Inc.  All Rights Reserved.
  
 This is part of the Gaussian(R) 09 program.  It is based on
 the Gaussian(R) 03 system (copyright 2003, Gaussian, Inc.),
 the Gaussian(R) 98 system (copyright 1998, Gaussian, Inc.),
 the Gaussian(R) 94 system (copyright 1995, Gaussian, Inc.),
 the Gaussian 92(TM) system (copyright 1992, Gaussian, Inc.),
 the Gaussian 90(TM) system (copyright 1990, Gaussian, Inc.),
 the Gaussian 88(TM) system (copyright 1988, Gaussian, Inc.),
 the Gaussian 86(TM) system (copyright 1986, Carnegie Mellon
 University), and the Gaussian 82(TM) system (copyright 1983,
 Carnegie Mellon University). Gaussian is a federally registered
 trademark of Gaussian, Inc.
  
 This software contains proprietary and confidential information,
 including trade secrets, belonging to Gaussian, Inc.
  
 This software is provided under written license and may be
 used, copied, transmitted, or stored only in accord with that
 written license.
  
 The following legend is applicable only to US Government
 contracts under FAR:
  
                    RESTRICTED RIGHTS LEGEND
  
 Use, reproduction and disclosure by the US Government is
 subject to restrictions as set forth in subparagraphs (a)
 and (c) of the Commercial Computer Software - Restricted
 Rights clause in FAR 52.227-19.
  
 Gaussian, Inc.
 340 Quinnipiac St., Bldg. 40, Wallingford CT 06492
  
  
 ---------------------------------------------------------------
 Warning -- This program may not be used in any manner that
 competes with the business of Gaussian, Inc. or will provide
 assistance to any competitor of Gaussian, Inc.  The licensee
 of this program is prohibited from giving any competitor of
 Gaussian, Inc. access to this program.  By using this program,
 the user acknowledges that Gaussian, Inc. is engaged in the
 business of creating and licensing software in the field of
 computational chemistry and represents and warrants to the
 licensee that it is not a competitor of Gaussian, Inc. and that
 it will not use this program in any manner prohibited above.
 ---------------------------------------------------------------
  

 Cite this work as:
 Gaussian 09, Revision E.01,
 M. J. Frisch, G. W. Trucks, H. B. Schlegel, G. E. Scuseria, 
 M. A. Robb, J. R. Cheeseman, G. Scalmani, V. Barone, B. Mennucci, 
 G. A. Petersson, H. Nakatsuji, M. Caricato, X. Li, H. P. Hratchian, 
 A. F. Izmaylov, J. Bloino, G. Zheng, J. L. Sonnenberg, M. Hada, 
 M. Ehara, K. Toyota, R. Fukuda, J. Hasegawa, M. Ishida, T. Nakajima, 
 Y. Honda, O. Kitao, H. Nakai, T. Vreven, J. A. Montgomery, Jr., 
 J. E. Peralta, F. Ogliaro, M. Bearpark, J. J. Heyd, E. Brothers, 
 K. N. Kudin, V. N. Staroverov, T. Keith, R. Kobayashi, J. Normand, 
 K. Raghavachari, A. Rendell, J. C. Burant, S. S. Iyengar, J. Tomasi, 
 M. Cossi, N. Rega, J. M. Millam, M. Klene, J. E. Knox, J. B. Cross, 
 V. Bakken, C. Adamo, J. Jaramillo, R. Gomperts, R. E. Stratmann, 
 O. Yazyev, A. J. Austin, R. Cammi, C. Pomelli, J. W. Ochterski, 
 R. L. Martin, K. Morokuma, V. G. Zakrzewski, G. A. Voth, 
 P. Salvador, J. J. Dannenberg, S. Dapprich, A. D. Daniels, 
 O. Farkas, J. B. Foresman, J. V. Ortiz, J. Cioslowski, 
 and D. J. Fox, Gaussian, Inc., Wallingford CT, 2013.
 
 ******************************************
 Gaussian 09:  ES64L-G09RevE.01 30-Nov-2015
                12-Dec-2022 
 ******************************************
 %nproc=16
 Will use up to   16 processors via shared memory.
 %chk=tyr-
 -----------------------
 #HF/6-31G* scrf=smd opt
 -----------------------
 1/14=-1,18=20,19=15,38=1/1,3;
 2/9=110,12=2,17=6,18=5,40=1/2;
 3/5=1,6=6,7=1,11=9,16=1,25=1,30=1,70=32201,71=1,72=1/1,2,3;
 4//1;
 5/5=2,38=5/2;
 6/7=2,8=2,9=2,10=2,28=1/1;
 7//1,2,3,16;
 1/14=-1,18=20,19=15/3(2);
 2/9=110/2;
 99//99;
 2/9=110/2;
 3/5=1,6=6,7=1,11=9,16=1,25=1,30=1,70=32205,71=1/1,2,3;
 4/5=5,16=3,69=1/1;
 5/5=2,38=5/2;
 7//1,2,3,16;
 1/14=-1,18=20,19=15/3(-5);
 2/9=110/2;
 6/7=2,8=2,9=2,10=2,19=2,28=1/1;
 99/9=1/99;
 ---------------------
 remark line goes here
 ---------------------
 Symbolic Z-matrix:
 Charge = -1 Multiplicity = 1
 C                    -28.578   -6.884    -22.134 
 C                    -27.553   -7.961    -22.471 
 H                    -27.269   -8.514    -21.576 
 H                    -28.07    -8.616    -23.172 
 C                    -26.324   -7.414    -23.132 
 C                    -25.378   -6.736    -22.39 
 H                    -25.385   -6.895    -21.322 
 C                    -24.198   -6.301    -22.955 
 H                    -23.361   -6.036    -22.327 
 C                    -24.048   -6.344    -24.323 
 O                    -22.922   -5.792    -24.86 
 C                    -26.178   -7.426    -24.508 
 H                    -27.077   -7.438    -25.106 
 C                    -25.026   -6.941    -25.098 
 H                    -24.759   -7.296    -26.082 
 H                    -28.849   -6.343    -23.041 
 H                    -28.151   -6.19     -21.411 
 H                    -29.468   -7.35     -21.71 
 

 GradGradGradGradGradGradGradGradGradGradGradGradGradGradGradGradGradGrad
 Berny optimization.
 Initialization pass.
                           ----------------------------
                           !    Initial Parameters    !
                           ! (Angstroms and Degrees)  !
 --------------------------                            --------------------------
 ! Name  Definition              Value          Derivative Info.                !
 --------------------------------------------------------------------------------
 ! R1    R(1,2)                  1.5245         estimate D2E/DX2                !
 ! R2    R(1,16)                 1.0903         estimate D2E/DX2                !
 ! R3    R(1,17)                 1.0894         estimate D2E/DX2                !
 ! R4    R(1,18)                 1.0904         estimate D2E/DX2                !
 ! R5    R(2,3)                  1.0897         estimate D2E/DX2                !
 ! R6    R(2,4)                  1.0898         estimate D2E/DX2                !
 ! R7    R(2,5)                  1.4989         estimate D2E/DX2                !
 ! R8    R(5,6)                  1.3803         estimate D2E/DX2                !
 ! R9    R(5,12)                 1.3838         estimate D2E/DX2                !
 ! R10   R(6,7)                  1.0798         estimate D2E/DX2                !
 ! R11   R(6,8)                  1.3787         estimate D2E/DX2                !
 ! R12   R(8,9)                  1.0794         estimate D2E/DX2                !
 ! R13   R(8,10)                 1.3769         estimate D2E/DX2                !
 ! R14   R(10,11)                1.3642         estimate D2E/DX2                !
 ! R15   R(10,14)                1.3833         estimate D2E/DX2                !
 ! R16   R(12,13)                1.0798         estimate D2E/DX2                !
 ! R17   R(12,14)                1.3822         estimate D2E/DX2                !
 ! R18   R(14,15)                1.0796         estimate D2E/DX2                !
 ! A1    A(2,1,16)             109.4973         estimate D2E/DX2                !
 ! A2    A(2,1,17)             109.4653         estimate D2E/DX2                !
 ! A3    A(2,1,18)             109.4396         estimate D2E/DX2                !
 ! A4    A(16,1,17)            109.477          estimate D2E/DX2                !
 ! A5    A(16,1,18)            109.4295         estimate D2E/DX2                !
 ! A6    A(17,1,18)            109.5187         estimate D2E/DX2                !
 ! A7    A(1,2,3)              110.6205         estimate D2E/DX2                !
 ! A8    A(1,2,4)              104.3488         estimate D2E/DX2                !
 ! A9    A(1,2,5)              113.0146         estimate D2E/DX2                !
 ! A10   A(3,2,4)              110.2993         estimate D2E/DX2                !
 ! A11   A(3,2,5)              109.4937         estimate D2E/DX2                !
 ! A12   A(4,2,5)              108.9446         estimate D2E/DX2                !
 ! A13   A(2,5,6)              120.276          estimate D2E/DX2                !
 ! A14   A(2,5,12)             121.4579         estimate D2E/DX2                !
 ! A15   A(6,5,12)             117.8073         estimate D2E/DX2                !
 ! A16   A(5,6,7)              117.0603         estimate D2E/DX2                !
 ! A17   A(5,6,8)              121.4175         estimate D2E/DX2                !
 ! A18   A(7,6,8)              117.2152         estimate D2E/DX2                !
 ! A19   A(6,8,9)              120.178          estimate D2E/DX2                !
 ! A20   A(6,8,10)             119.3767         estimate D2E/DX2                !
 ! A21   A(9,8,10)             120.0814         estimate D2E/DX2                !
 ! A22   A(8,10,11)            117.9303         estimate D2E/DX2                !
 ! A23   A(8,10,14)            119.5446         estimate D2E/DX2                !
 ! A24   A(11,10,14)           122.5247         estimate D2E/DX2                !
 ! A25   A(5,12,13)            117.5778         estimate D2E/DX2                !
 ! A26   A(5,12,14)            120.621          estimate D2E/DX2                !
 ! A27   A(13,12,14)           117.4785         estimate D2E/DX2                !
 ! A28   A(10,14,12)           120.1026         estimate D2E/DX2                !
 ! A29   A(10,14,15)           118.5351         estimate D2E/DX2                !
 ! A30   A(12,14,15)           118.6723         estimate D2E/DX2                !
 ! D1    D(16,1,2,3)          -179.988          estimate D2E/DX2                !
 ! D2    D(16,1,2,4)           -61.3769         estimate D2E/DX2                !
 ! D3    D(16,1,2,5)            56.8358         estimate D2E/DX2                !
 ! D4    D(17,1,2,3)            59.9926         estimate D2E/DX2                !
 ! D5    D(17,1,2,4)           178.6037         estimate D2E/DX2                !
 ! D6    D(17,1,2,5)           -63.1836         estimate D2E/DX2                !
 ! D7    D(18,1,2,3)           -60.0425         estimate D2E/DX2                !
 ! D8    D(18,1,2,4)            58.5686         estimate D2E/DX2                !
 ! D9    D(18,1,2,5)           176.7813         estimate D2E/DX2                !
 ! D10   D(1,2,5,6)             75.2665         estimate D2E/DX2                !
 ! D11   D(1,2,5,12)           -96.7913         estimate D2E/DX2                !
 ! D12   D(3,2,5,6)            -48.5316         estimate D2E/DX2                !
 ! D13   D(3,2,5,12)           139.4107         estimate D2E/DX2                !
 ! D14   D(4,2,5,6)           -169.2356         estimate D2E/DX2                !
 ! D15   D(4,2,5,12)            18.7066         estimate D2E/DX2                !
 ! D16   D(2,5,6,7)             19.5787         estimate D2E/DX2                !
 ! D17   D(2,5,6,8)            175.6174         estimate D2E/DX2                !
 ! D18   D(12,5,6,7)          -168.079          estimate D2E/DX2                !
 ! D19   D(12,5,6,8)           -12.0403         estimate D2E/DX2                !
 ! D20   D(2,5,12,13)           25.2086         estimate D2E/DX2                !
 ! D21   D(2,5,12,14)         -178.7198         estimate D2E/DX2                !
 ! D22   D(6,5,12,13)         -147.0382         estimate D2E/DX2                !
 ! D23   D(6,5,12,14)            9.0335         estimate D2E/DX2                !
 ! D24   D(5,6,8,9)           -162.2848         estimate D2E/DX2                !
 ! D25   D(5,6,8,10)            10.7965         estimate D2E/DX2                !
 ! D26   D(7,6,8,9)             -6.2814         estimate D2E/DX2                !
 ! D27   D(7,6,8,10)           166.7999         estimate D2E/DX2                !
 ! D28   D(6,8,10,11)          173.9785         estimate D2E/DX2                !
 ! D29   D(6,8,10,14)           -6.2714         estimate D2E/DX2                !
 ! D30   D(9,8,10,11)          -12.9334         estimate D2E/DX2                !
 ! D31   D(9,8,10,14)          166.8167         estimate D2E/DX2                !
 ! D32   D(8,10,14,12)           3.4587         estimate D2E/DX2                !
 ! D33   D(8,10,14,15)        -157.7182         estimate D2E/DX2                !
 ! D34   D(11,10,14,12)       -176.8032         estimate D2E/DX2                !
 ! D35   D(11,10,14,15)         22.0199         estimate D2E/DX2                !
 ! D36   D(5,12,14,10)          -4.9429         estimate D2E/DX2                !
 ! D37   D(5,12,14,15)         156.2085         estimate D2E/DX2                !
 ! D38   D(13,12,14,10)        151.1517         estimate D2E/DX2                !
 ! D39   D(13,12,14,15)        -47.6969         estimate D2E/DX2                !
 --------------------------------------------------------------------------------
 Trust Radius=3.00D-01 FncErr=1.00D-07 GrdErr=1.00D-07
 Number of steps in this run=     97 maximum allowed number of steps=    108.
 GradGradGradGradGradGradGradGradGradGradGradGradGradGradGradGradGradGrad

                          Input orientation:                          
 ---------------------------------------------------------------------
 Center     Atomic      Atomic             Coordinates (Angstroms)
 Number     Number       Type             X           Y           Z
 ---------------------------------------------------------------------
      1          6           0      -28.578000   -6.884000  -22.134000
      2          6           0      -27.553000   -7.961000  -22.471000
      3          1           0      -27.269000   -8.514000  -21.576000
      4          1           0      -28.070000   -8.616000  -23.172000
      5          6           0      -26.324000   -7.414000  -23.132000
      6          6           0      -25.378000   -6.736000  -22.390000
      7          1           0      -25.385000   -6.895000  -21.322000
      8          6           0      -24.198000   -6.301000  -22.955000
      9          1           0      -23.361000   -6.036000  -22.327000
     10          6           0      -24.048000   -6.344000  -24.323000
     11          8           0      -22.922000   -5.792000  -24.860000
     12          6           0      -26.178000   -7.426000  -24.508000
     13          1           0      -27.077000   -7.438000  -25.106000
     14          6           0      -25.026000   -6.941000  -25.098000
     15          1           0      -24.759000   -7.296000  -26.082000
     16          1           0      -28.849000   -6.343000  -23.041000
     17          1           0      -28.151000   -6.190000  -21.411000
     18          1           0      -29.468000   -7.350000  -21.710000
 ---------------------------------------------------------------------
                    Distance matrix (angstroms):
                    1          2          3          4          5
     1  C    0.000000
     2  C    1.524507   0.000000
     3  H    2.163734   1.089720   0.000000
     4  H    2.082146   1.089823   1.788637   0.000000
     5  C    2.521392   1.498857   2.127008   2.120123   0.000000
     6  C    3.213633   2.497561   2.720250   3.375320   1.380277
     7  H    3.294649   2.675216   2.497025   3.686945   2.104087
     8  C    4.494255   3.774372   4.028654   4.516492   2.406236
     9  H    5.288993   4.615108   4.687958   5.435541   3.365454
    10  C    5.060061   4.281310   4.757074   4.760595   2.782725
    11  O    6.372902   5.644293   6.090185   6.109519   4.146139
    12  C    3.419012   2.515198   3.312197   2.603970   1.383776
    13  H    3.375308   2.728247   3.695340   2.472668   2.112880
    14  C    4.626581   3.785136   4.462047   3.972535   2.402850
    15  H    5.508285   4.613890   5.299779   4.601437   3.341504
    16  H    1.090308   2.149986   3.058736   2.406352   2.744257
    17  H    1.089355   2.148871   2.491210   2.998859   2.792480
    18  H    1.090427   2.149341   2.491677   2.386337   3.451219
                    6          7          8          9         10
     6  C    0.000000
     7  H    1.079793   0.000000
     8  C    1.378713   2.104399   0.000000
     9  H    2.135944   2.417536   1.079434   0.000000
    10  C    2.378876   3.331242   1.376871   2.133272   0.000000
    11  O    3.608874   4.449767   2.348677   2.582314   1.364166
    12  C    2.366860   3.325869   2.756417   3.824180   2.396216
    13  H    3.279643   4.180475   3.769378   4.847381   3.314327
    14  C    2.738465   3.793306   2.384876   3.357036   1.383300
    15  H    3.785185   4.817705   3.329095   4.200242   2.122712
    16  H    3.553321   3.906272   4.651985   5.542760   4.969218
    17  H    2.991001   2.855819   4.245288   4.879229   5.033693
    18  H    4.191360   4.126555   5.515734   6.277160   6.100509
                   11         12         13         14         15
    11  O    0.000000
    12  C    3.659972   0.000000
    13  H    4.475920   1.079791   0.000000
    14  C    2.409079   1.382183   2.110373   0.000000
    15  H    2.670181   2.123190   2.519100   1.079616   0.000000
    16  H    6.224282   3.234072   2.933127   4.382258   5.184977
    17  H    6.276659   3.874511   4.045245   4.891175   5.877682
    18  H    7.429669   4.319569   4.154208   5.601535   6.425884
                   16         17         18
    16  H    0.000000
    17  H    1.779751   0.000000
    18  H    1.780104   1.780306   0.000000
 Stoichiometry    C8H9O(1-)
 Framework group  C1[X(C8H9O)]
 Deg. of freedom    48
 Full point group                 C1      NOp   1
 Largest Abelian subgroup         C1      NOp   1
 Largest concise Abelian subgroup C1      NOp   1
                         Standard orientation:                         
 ---------------------------------------------------------------------
 Center     Atomic      Atomic             Coordinates (Angstroms)
 Number     Number       Type             X           Y           Z
 ---------------------------------------------------------------------
      1          6           0       -3.105378   -0.154715    0.734773
      2          6           0       -2.321587    0.101862   -0.547398
      3          1           0       -2.593680   -0.622249   -1.314939
      4          1           0       -2.620902    1.104899   -0.850783
      5          6           0       -0.837139    0.078430   -0.341403
      6          6           0       -0.177240   -1.121687   -0.169889
      7          1           0       -0.684651   -2.013674   -0.505818
      8          6           0        1.196527   -1.178294   -0.067866
      9          1           0        1.713882   -2.113345   -0.220184
     10          6           0        1.910976   -0.011494    0.086774
     11          8           0        3.253197   -0.108949    0.310145
     12          6           0       -0.115390    1.244319   -0.155349
     13          1           0       -0.640076    2.098356    0.246241
     14          6           0        1.256672    1.204653    0.006834
     15          1           0        1.832556    2.085192   -0.235192
     16          1           0       -2.819598    0.578966    1.488970
     17          1           0       -2.884677   -1.156718    1.100798
     18          1           0       -4.173081   -0.068278    0.530884
 ---------------------------------------------------------------------
 Rotational constants (GHZ):      4.6140160      0.9860412      0.8693645
 Standard basis: 6-31G(d) (6D, 7F)
 There are   153 symmetry adapted cartesian basis functions of A   symmetry.
 There are   153 symmetry adapted basis functions of A   symmetry.
   153 basis functions,   288 primitive gaussians,   153 cartesian basis functions
    33 alpha electrons       33 beta electrons
       nuclear repulsion energy       409.6798676822 Hartrees.
 NAtoms=   18 NActive=   18 NUniq=   18 SFac= 1.00D+00 NAtFMM=   60 NAOKFM=F Big=F
 Integral buffers will be    131072 words long.
 Raffenetti 1 integral format.
 Two-electron integral symmetry is turned on.
 ------------------------------------------------------------------------------
 Polarizable Continuum Model (PCM)
 =================================
 Model                : PCM (using non-symmetric T matrix).
 Atomic radii         : SMD-Coulomb.
 Polarization charges : Total charges.
 Charge compensation  : None.
 Solution method      : On-the-fly selection.
 Cavity type          : VdW (van der Waals Surface) (Alpha=1.000).
 Cavity algorithm     : GePol (No added spheres)
                        Default sphere list used, NSphG=   18.
                        Lebedev-Laikov grids with approx.  5.0 points / Ang**2.
                        Smoothing algorithm: York/Karplus (Gamma=1.0000).
                        Polarization charges: spherical gaussians, with
                                              point-specific exponents (IZeta= 3).
                        Self-potential: point-specific (ISelfS= 7).
                        Self-field    : sphere-specific E.n sum rule (ISelfD= 2).
 1st derivatives      : Analytical E(r).r(x)/FMM algorithm (CHGder, D1EAlg=3).
                        Cavity 1st derivative terms included.
 Solvent              : Water, Eps=  78.355300 Eps(inf)=   1.777849
 ------------------------------------------------------------------------------
 Spheres list:
 ISph  on   Nord     Re0    Alpha      Xe            Ye            Ze
    1   C      1    1.8500  1.000     -3.105378     -0.154715      0.734773
    2   C      2    1.8500  1.000     -2.321587      0.101862     -0.547398
    3   H      3    1.2000  1.000     -2.593680     -0.622249     -1.314939
    4   H      4    1.2000  1.000     -2.620902      1.104899     -0.850783
    5   C      5    1.8500  1.000     -0.837139      0.078430     -0.341403
    6   C      6    1.8500  1.000     -0.177240     -1.121687     -0.169889
    7   H      7    1.2000  1.000     -0.684651     -2.013674     -0.505818
    8   C      8    1.8500  1.000      1.196527     -1.178294     -0.067866
    9   H      9    1.2000  1.000      1.713882     -2.113345     -0.220184
   10   C     10    1.8500  1.000      1.910976     -0.011494      0.086774
   11   O     11    1.5200  1.000      3.253197     -0.108949      0.310145
   12   C     12    1.8500  1.000     -0.115390      1.244319     -0.155349
   13   H     13    1.2000  1.000     -0.640076      2.098356      0.246241
   14   C     14    1.8500  1.000      1.256672      1.204653      0.006834
   15   H     15    1.2000  1.000      1.832556      2.085192     -0.235192
   16   H     16    1.2000  1.000     -2.819598      0.578966      1.488970
   17   H     17    1.2000  1.000     -2.884677     -1.156718      1.100798
   18   H     18    1.2000  1.000     -4.173081     -0.068278      0.530884
 ------------------------------------------------------------------------------
 ------------------------------------------------------------------------------
 Atomic radii for non-electrostatic terms: SMD-CDS.
 ------------------------------------------------------------------------------
 Nuclear repulsion after PCM non-electrostatic terms =      409.6856341318 Hartrees.
 One-electron integrals computed using PRISM.
 NBasis=   153 RedAO= T EigKep=  7.15D-04  NBF=   153
 NBsUse=   153 1.00D-06 EigRej= -1.00D+00 NBFU=   153
 ExpMin= 1.61D-01 ExpMax= 5.48D+03 ExpMxC= 8.25D+02 IAcc=1 IRadAn=         1 AccDes= 0.00D+00
 Harris functional with IExCor=  205 and IRadAn=       1 diagonalized for initial guess.
 HarFok:  IExCor=  205 AccDes= 0.00D+00 IRadAn=         1 IDoV= 1 UseB2=F ITyADJ=14
 ICtDFT=  3500011 ScaDFX=  1.000000  1.000000  1.000000  1.000000
 FoFCou: FMM=F IPFlag=           0 FMFlag=      100000 FMFlg1=           0
         NFxFlg=           0 DoJE=T BraDBF=F KetDBF=T FulRan=T
         wScrn=  0.000000 ICntrl=     500 IOpCl=  0 I1Cent=   200000004 NGrid=           0
         NMat0=    1 NMatS0=      1 NMatT0=    0 NMatD0=    1 NMtDS0=    0 NMtDT0=    0
 Petite list used in FoFCou.
 Keep R1 ints in memory in canonical form, NReq=74764264.
 Requested convergence on RMS density matrix=1.00D-08 within 128 cycles.
 Requested convergence on MAX density matrix=1.00D-06.
 Requested convergence on             energy=1.00D-06.
 No special actions if energy rises.
 Inv3:  Mode=1 IEnd=     6066252.
 Iteration    1 A*A^-1 deviation from unit magnitude is 6.00D-15 for   1411.
 Iteration    1 A*A^-1 deviation from orthogonality  is 3.95D-15 for   1251     77.
 Iteration    1 A^-1*A deviation from unit magnitude is 5.77D-15 for   1411.
 Iteration    1 A^-1*A deviation from orthogonality  is 7.49D-08 for   1420   1388.
 Iteration    2 A*A^-1 deviation from unit magnitude is 1.78D-15 for      2.
 Iteration    2 A*A^-1 deviation from orthogonality  is 3.45D-15 for   1419     40.
 Iteration    2 A^-1*A deviation from unit magnitude is 8.88D-16 for    114.
 Iteration    2 A^-1*A deviation from orthogonality  is 3.80D-16 for    912    451.
 Error on total polarization charges =  0.04332
 SCF Done:  E(RHF) =  -383.103854710     A.U. after   14 cycles
            NFock= 14  Conv=0.69D-08     -V/T= 2.0004
 SMD-CDS (non-electrostatic) energy       (kcal/mol) =       3.62
 (included in total energy above)

 **********************************************************************

            Population analysis using the SCF density.

 **********************************************************************

 Orbital symmetries:
       Occupied  (A) (A) (A) (A) (A) (A) (A) (A) (A) (A) (A) (A)
                 (A) (A) (A) (A) (A) (A) (A) (A) (A) (A) (A) (A)
                 (A) (A) (A) (A) (A) (A) (A) (A) (A)
       Virtual   (A) (A) (A) (A) (A) (A) (A) (A) (A) (A) (A) (A)
                 (A) (A) (A) (A) (A) (A) (A) (A) (A) (A) (A) (A)
                 (A) (A) (A) (A) (A) (A) (A) (A) (A) (A) (A) (A)
                 (A) (A) (A) (A) (A) (A) (A) (A) (A) (A) (A) (A)
                 (A) (A) (A) (A) (A) (A) (A) (A) (A) (A) (A) (A)
                 (A) (A) (A) (A) (A) (A) (A) (A) (A) (A) (A) (A)
                 (A) (A) (A) (A) (A) (A) (A) (A) (A) (A) (A) (A)
                 (A) (A) (A) (A) (A) (A) (A) (A) (A) (A) (A) (A)
                 (A) (A) (A) (A) (A) (A) (A) (A) (A) (A) (A) (A)
                 (A) (A) (A) (A) (A) (A) (A) (A) (A) (A) (A) (A)
 The electronic state is 1-A.
 Alpha  occ. eigenvalues --  -20.44267 -11.24624 -11.20888 -11.20764 -11.20611
 Alpha  occ. eigenvalues --  -11.20073 -11.19879 -11.19061 -11.18951  -1.23471
 Alpha  occ. eigenvalues --   -1.12774  -1.03512  -0.99499  -0.94513  -0.83225
 Alpha  occ. eigenvalues --   -0.81001  -0.75526  -0.64385  -0.63250  -0.60456
 Alpha  occ. eigenvalues --   -0.57882  -0.56923  -0.55464  -0.52159  -0.50144
 Alpha  occ. eigenvalues --   -0.49395  -0.48554  -0.46065  -0.45003  -0.40510
 Alpha  occ. eigenvalues --   -0.36445  -0.31559  -0.25470
 Alpha virt. eigenvalues --    0.14400   0.18719   0.25325   0.28222   0.29491
 Alpha virt. eigenvalues --    0.31776   0.33009   0.33576   0.34532   0.36117
 Alpha virt. eigenvalues --    0.37212   0.38699   0.43173   0.45172   0.47003
 Alpha virt. eigenvalues --    0.52031   0.54866   0.56976   0.58497   0.70729
 Alpha virt. eigenvalues --    0.72038   0.74006   0.75199   0.75727   0.76375
 Alpha virt. eigenvalues --    0.79004   0.82707   0.84724   0.85302   0.87220
 Alpha virt. eigenvalues --    0.88889   0.91701   0.92934   0.94293   0.94940
 Alpha virt. eigenvalues --    0.96790   0.99399   1.02595   1.05446   1.09051
 Alpha virt. eigenvalues --    1.11202   1.11727   1.14205   1.15441   1.17015
 Alpha virt. eigenvalues --    1.17863   1.19202   1.20429   1.23251   1.24682
 Alpha virt. eigenvalues --    1.26166   1.27454   1.29925   1.30108   1.33534
 Alpha virt. eigenvalues --    1.35229   1.36792   1.38096   1.40856   1.44001
 Alpha virt. eigenvalues --    1.50953   1.54692   1.56107   1.59341   1.69652
 Alpha virt. eigenvalues --    1.73346   1.78837   1.84795   1.87751   1.95694
 Alpha virt. eigenvalues --    1.99635   2.02971   2.04590   2.07362   2.14176
 Alpha virt. eigenvalues --    2.16372   2.18997   2.19538   2.21298   2.26330
 Alpha virt. eigenvalues --    2.28849   2.30658   2.33340   2.35164   2.38314
 Alpha virt. eigenvalues --    2.42104   2.46145   2.50964   2.53762   2.57365
 Alpha virt. eigenvalues --    2.62128   2.63692   2.66361   2.67020   2.69616
 Alpha virt. eigenvalues --    2.73482   2.75151   2.81034   2.91756   2.93184
 Alpha virt. eigenvalues --    2.93639   3.02358   3.04814   3.06992   3.15958
 Alpha virt. eigenvalues --    3.19479   3.23220   3.31965   3.35299   3.57541
 Alpha virt. eigenvalues --    3.82413   4.36825   4.58019   4.58162   4.63026
 Alpha virt. eigenvalues --    4.69657   4.79200   4.87349   4.95600   5.19011
          Condensed to atoms (all electrons):
               1          2          3          4          5          6
     1  C    5.154757   0.328204  -0.042123  -0.048103  -0.066333  -0.002625
     2  C    0.328204   5.079459   0.402313   0.411589   0.344694  -0.057870
     3  H   -0.042123   0.402313   0.535326  -0.024467  -0.042445  -0.004749
     4  H   -0.048103   0.411589  -0.024467   0.544242  -0.051991   0.003842
     5  C   -0.066333   0.344694  -0.042445  -0.051991   4.947917   0.548032
     6  C   -0.002625  -0.057870  -0.004749   0.003842   0.548032   5.027759
     7  H    0.000054  -0.004697   0.002518  -0.000035  -0.045882   0.385691
     8  C   -0.000050   0.003251  -0.000034  -0.000017  -0.051875   0.460062
     9  H    0.000002  -0.000105  -0.000007   0.000003   0.003411  -0.036567
    10  C    0.000016   0.000106   0.000026  -0.000035  -0.026467  -0.037971
    11  O   -0.000000  -0.000000  -0.000000  -0.000000  -0.000061   0.006274
    12  C   -0.002279  -0.049317   0.002927  -0.002709   0.550871  -0.043578
    13  H    0.000710  -0.003925   0.000036   0.001566  -0.035038   0.003139
    14  C   -0.000094   0.004149  -0.000115   0.000370  -0.051057  -0.036035
    15  H    0.000001  -0.000124   0.000003  -0.000005   0.002319   0.000063
    16  H    0.391152  -0.040613   0.004209  -0.002968  -0.001662   0.000570
    17  H    0.389154  -0.040009  -0.002299   0.004914  -0.003984   0.003023
    18  H    0.383732  -0.038570  -0.001555  -0.003691   0.006419  -0.000052
               7          8          9         10         11         12
     1  C    0.000054  -0.000050   0.000002   0.000016  -0.000000  -0.002279
     2  C   -0.004697   0.003251  -0.000105   0.000106  -0.000000  -0.049317
     3  H    0.002518  -0.000034  -0.000007   0.000026  -0.000000   0.002927
     4  H   -0.000035  -0.000017   0.000003  -0.000035  -0.000000  -0.002709
     5  C   -0.045882  -0.051875   0.003411  -0.026467  -0.000061   0.550871
     6  C    0.385691   0.460062  -0.036567  -0.037971   0.006274  -0.043578
     7  H    0.501386  -0.033662  -0.003228   0.002804  -0.000066   0.005676
     8  C   -0.033662   5.214756   0.384088   0.528367  -0.070958  -0.036316
     9  H   -0.003228   0.384088   0.487401  -0.034205   0.000296  -0.000642
    10  C    0.002804   0.528367  -0.034205   4.274098   0.350072  -0.028364
    11  O   -0.000066  -0.070958   0.000296   0.350072   8.838640   0.005300
    12  C    0.005676  -0.036316  -0.000642  -0.028364   0.005300   5.067708
    13  H   -0.000168   0.000337   0.000014   0.001279  -0.000051   0.377039
    14  C   -0.000745  -0.062529   0.005608   0.529568  -0.063062   0.425912
    15  H    0.000020   0.004647  -0.000105  -0.034482   0.000712  -0.034940
    16  H    0.000053  -0.000051  -0.000000   0.000003   0.000000   0.001548
    17  H    0.000309   0.000010   0.000002  -0.000008   0.000000   0.000240
    18  H   -0.000031   0.000003  -0.000000  -0.000000   0.000000  -0.000037
              13         14         15         16         17         18
     1  C    0.000710  -0.000094   0.000001   0.391152   0.389154   0.383732
     2  C   -0.003925   0.004149  -0.000124  -0.040613  -0.040009  -0.038570
     3  H    0.000036  -0.000115   0.000003   0.004209  -0.002299  -0.001555
     4  H    0.001566   0.000370  -0.000005  -0.002968   0.004914  -0.003691
     5  C   -0.035038  -0.051057   0.002319  -0.001662  -0.003984   0.006419
     6  C    0.003139  -0.036035   0.000063   0.000570   0.003023  -0.000052
     7  H   -0.000168  -0.000745   0.000020   0.000053   0.000309  -0.000031
     8  C    0.000337  -0.062529   0.004647  -0.000051   0.000010   0.000003
     9  H    0.000014   0.005608  -0.000105  -0.000000   0.000002  -0.000000
    10  C    0.001279   0.529568  -0.034482   0.000003  -0.000008  -0.000000
    11  O   -0.000051  -0.063062   0.000712   0.000000   0.000000   0.000000
    12  C    0.377039   0.425912  -0.034940   0.001548   0.000240  -0.000037
    13  H    0.482779  -0.029105  -0.002548   0.000387  -0.000027  -0.000032
    14  C   -0.029105   5.251779   0.379426  -0.000093   0.000007   0.000002
    15  H   -0.002548   0.379426   0.498469   0.000001   0.000000  -0.000000
    16  H    0.000387  -0.000093   0.000001   0.535457  -0.025970  -0.025334
    17  H   -0.000027   0.000007   0.000000  -0.025970   0.539959  -0.025134
    18  H   -0.000032   0.000002  -0.000000  -0.025334  -0.025134   0.543997
 Mulliken charges:
               1
     1  C   -0.486174
     2  C   -0.338534
     3  H    0.170435
     4  H    0.167498
     5  C   -0.026867
     6  C   -0.219006
     7  H    0.190003
     8  C   -0.340027
     9  H    0.194034
    10  C    0.475194
    11  O   -1.067094
    12  C   -0.239039
    13  H    0.203607
    14  C   -0.353987
    15  H    0.186544
    16  H    0.163312
    17  H    0.159816
    18  H    0.160285
 Sum of Mulliken charges =  -1.00000
 Mulliken charges with hydrogens summed into heavy atoms:
               1
     1  C   -0.002761
     2  C   -0.000600
     5  C   -0.026867
     6  C   -0.029003
     8  C   -0.145993
    10  C    0.475194
    11  O   -1.067094
    12  C   -0.035432
    14  C   -0.167444
 Electronic spatial extent (au):  <R**2>=           1380.5249
 Charge=             -1.0000 electrons
 Dipole moment (field-independent basis, Debye):
    X=            -13.8626    Y=              0.2769    Z=             -1.5419  Tot=             13.9509
 Quadrupole moment (field-independent basis, Debye-Ang):
   XX=           -100.9348   YY=            -53.5234   ZZ=            -59.5778
   XY=              1.0117   XZ=             -4.4213   YZ=              1.5156
 Traceless Quadrupole moment (field-independent basis, Debye-Ang):
   XX=            -29.5894   YY=             17.8219   ZZ=             11.7675
   XY=              1.0117   XZ=             -4.4213   YZ=              1.5156
 Octapole moment (field-independent basis, Debye-Ang**2):
  XXX=           -154.9861  YYY=             -1.5070  ZZZ=              0.7608  XYY=             -0.6844
  XXY=              5.8239  XXZ=            -19.1757  XZZ=             -1.9642  YZZ=             -0.5821
  YYZ=             -1.6306  XYZ=             -1.7254
 Hexadecapole moment (field-independent basis, Debye-Ang**3):
 XXXX=          -1951.4489 YYYY=           -309.0220 ZZZZ=           -130.0939 XXXY=             11.7252
 XXXZ=            -40.3643 YYYX=             -2.5422 YYYZ=              6.0544 ZZZX=              1.4436
 ZZZY=              2.7782 XXYY=           -285.1619 XXZZ=           -272.7908 YYZZ=            -79.1059
 XXYZ=              3.9132 YYXZ=             -3.3906 ZZXY=              0.1376
 N-N= 4.096856341318D+02 E-N=-1.727592102463D+03  KE= 3.829615619035D+02
 D1PCM: PCM CHGder 1st derivatives, ID1Alg=3 FixD1E=F DoIter=F DoCFld=F I1PDM=0.
 Calling FoFJK, ICntrl=      2127 FMM=F ISym2X=0 I1Cent= 0 IOpClX= 0 NMat=1 NMatS=1 NMatT=0.
 ***** Axes restored to original set *****
 -------------------------------------------------------------------
 Center     Atomic                   Forces (Hartrees/Bohr)
 Number     Number              X              Y              Z
 -------------------------------------------------------------------
      1        6           0.002852464    0.000158576    0.006805719
      2        6          -0.012345095   -0.000019219   -0.009077342
      3        1          -0.004255573   -0.001277760   -0.002992433
      4        1           0.007170831   -0.007684693    0.005291465
      5        6          -0.019121658    0.017348174   -0.003384433
      6        6           0.031461073   -0.041488200    0.019527244
      7        1          -0.006239956    0.012530194    0.002584419
      8        6          -0.016753384    0.001291084    0.023963872
      9        1          -0.003826718    0.008691726   -0.003436135
     10        6           0.076940326    0.033853703   -0.035464081
     11        8          -0.035474741   -0.025325189    0.009843822
     12        6          -0.014199956    0.027756389    0.002210602
     13        1           0.002911480   -0.031739543   -0.005459650
     14        6           0.005031113   -0.021818148   -0.005008169
     15        1          -0.007364802    0.020246205   -0.008443527
     16        1          -0.001236972    0.000106308    0.004971064
     17        1          -0.005962190    0.001844133   -0.001621516
     18        1           0.000413759    0.005526259   -0.000310922
 -------------------------------------------------------------------
 Cartesian Forces:  Max     0.076940326 RMS     0.018704108

 GradGradGradGradGradGradGradGradGradGradGradGradGradGradGradGradGradGrad
 Berny optimization.
 FormGI is forming the generalized inverse of G from B-inverse, IUseBI=4.
 Internal  Forces:  Max     0.043405794 RMS     0.009123736
 Search for a local minimum.
 Step number   1 out of a maximum of   97
 All quantities printed in internal units (Hartrees-Bohrs-Radians)
 Mixed Optimization -- RFO/linear search
 Second derivative matrix not updated -- first step.
 ITU=  0
     Eigenvalues ---    0.00442   0.00781   0.01720   0.02320   0.02343
     Eigenvalues ---    0.02351   0.02385   0.02430   0.02539   0.02668
     Eigenvalues ---    0.02728   0.04229   0.05702   0.05852   0.05856
     Eigenvalues ---    0.09291   0.12838   0.14707   0.14917   0.15391
     Eigenvalues ---    0.15900   0.16000   0.16000   0.16000   0.21924
     Eigenvalues ---    0.22102   0.23030   0.23838   0.24769   0.25000
     Eigenvalues ---    0.29937   0.32498   0.34763   0.34777   0.34833
     Eigenvalues ---    0.34845   0.34887   0.36019   0.36020   0.36041
     Eigenvalues ---    0.36063   0.44069   0.44484   0.48520   0.48814
     Eigenvalues ---    0.49047   0.49415   0.52114
 RFO step:  Lambda=-3.94904279D-02 EMin= 4.41760706D-03
 Linear search not attempted -- first point.
 Iteration  1 RMS(Cart)=  0.06351053 RMS(Int)=  0.00980301
 Iteration  2 RMS(Cart)=  0.00724385 RMS(Int)=  0.00174060
 Iteration  3 RMS(Cart)=  0.00010772 RMS(Int)=  0.00173635
 Iteration  4 RMS(Cart)=  0.00000007 RMS(Int)=  0.00173635
 Variable       Old X    -DE/DX   Delta X   Delta X   Delta X     New X
                                 (Linear)    (Quad)   (Total)
    R1        2.88090   0.01023   0.00000   0.03020   0.03020   2.91110
    R2        2.06038  -0.00378   0.00000  -0.00977  -0.00977   2.05062
    R3        2.05858  -0.00222   0.00000  -0.00572  -0.00572   2.05286
    R4        2.06061  -0.00282   0.00000  -0.00730  -0.00730   2.05331
    R5        2.05927  -0.00291   0.00000  -0.00750  -0.00750   2.05177
    R6        2.05947  -0.00220   0.00000  -0.00567  -0.00567   2.05379
    R7        2.83243   0.01279   0.00000   0.03510   0.03510   2.86753
    R8        2.60835   0.01687   0.00000   0.03107   0.03108   2.63942
    R9        2.61496   0.01247   0.00000   0.02244   0.02284   2.63780
   R10        2.04051   0.00074   0.00000   0.00186   0.00186   2.04238
   R11        2.60539   0.00900   0.00000   0.01740   0.01705   2.62244
   R12        2.03983  -0.00284   0.00000  -0.00710  -0.00710   2.03274
   R13        2.60191   0.03252   0.00000   0.06197   0.06157   2.66348
   R14        2.57790  -0.04341   0.00000  -0.07742  -0.07742   2.50048
   R15        2.61406   0.01901   0.00000   0.03705   0.03703   2.65109
   R16        2.04051   0.00096   0.00000   0.00240   0.00240   2.04291
   R17        2.61195   0.01965   0.00000   0.03677   0.03712   2.64906
   R18        2.04018  -0.00077   0.00000  -0.00194  -0.00194   2.03824
    A1        1.91109   0.00262   0.00000   0.01230   0.01212   1.92320
    A2        1.91053   0.00714   0.00000   0.03646   0.03605   1.94658
    A3        1.91008   0.00496   0.00000   0.02501   0.02466   1.93474
    A4        1.91073  -0.00495   0.00000  -0.02509  -0.02534   1.88540
    A5        1.90990  -0.00412   0.00000  -0.02201  -0.02213   1.88778
    A6        1.91146  -0.00565   0.00000  -0.02667  -0.02721   1.88425
    A7        1.93069  -0.00361   0.00000  -0.02513  -0.02481   1.90588
    A8        1.82123   0.00770   0.00000   0.05967   0.05938   1.88061
    A9        1.97248   0.00167   0.00000   0.01347   0.01295   1.98543
   A10        1.92509  -0.00436   0.00000  -0.04296  -0.04258   1.88251
   A11        1.91103   0.00111   0.00000  -0.00151  -0.00152   1.90951
   A12        1.90144  -0.00251   0.00000  -0.00301  -0.00434   1.89710
   A13        2.09921   0.00312   0.00000   0.01625   0.01504   2.11426
   A14        2.11984  -0.00132   0.00000   0.00083  -0.00049   2.11935
   A15        2.05613  -0.00139   0.00000  -0.01024  -0.00922   2.04691
   A16        2.04309   0.00309   0.00000   0.03818   0.03110   2.07419
   A17        2.11913   0.00051   0.00000   0.01109   0.00511   2.12425
   A18        2.04579   0.00155   0.00000   0.02928   0.02162   2.06741
   A19        2.09750  -0.00206   0.00000  -0.00452  -0.00501   2.09249
   A20        2.08352   0.00836   0.00000   0.03349   0.03373   2.11724
   A21        2.09582  -0.00596   0.00000  -0.02442  -0.02506   2.07076
   A22        2.05827   0.01778   0.00000   0.06108   0.06074   2.11901
   A23        2.08645  -0.01364   0.00000  -0.04640  -0.04573   2.04072
   A24        2.13846  -0.00414   0.00000  -0.01466  -0.01500   2.12346
   A25        2.05212   0.00019   0.00000   0.02118   0.01553   2.06765
   A26        2.10523   0.00333   0.00000   0.01543   0.01305   2.11829
   A27        2.05039   0.00089   0.00000   0.02611   0.02073   2.07112
   A28        2.09619   0.00424   0.00000   0.01905   0.01839   2.11458
   A29        2.06883  -0.00386   0.00000  -0.00780  -0.01107   2.05776
   A30        2.07122   0.00203   0.00000   0.02360   0.02092   2.09214
    D1       -3.14138   0.00106   0.00000   0.00992   0.01010  -3.13129
    D2       -1.07123  -0.00149   0.00000  -0.01927  -0.01975  -1.09098
    D3        0.99197   0.00112   0.00000   0.02104   0.02144   1.01341
    D4        1.04707   0.00115   0.00000   0.01077   0.01098   1.05805
    D5        3.11722  -0.00141   0.00000  -0.01842  -0.01886   3.09836
    D6       -1.10276   0.00120   0.00000   0.02188   0.02233  -1.08043
    D7       -1.04794   0.00066   0.00000   0.00580   0.00582  -1.04212
    D8        1.02221  -0.00189   0.00000  -0.02339  -0.02402   0.99820
    D9        3.08541   0.00071   0.00000   0.01691   0.01717   3.10259
   D10        1.31365  -0.00200   0.00000  -0.00259  -0.00260   1.31105
   D11       -1.68933  -0.00542   0.00000  -0.06073  -0.06058  -1.74991
   D12       -0.84704   0.00067   0.00000   0.02159   0.02160  -0.82544
   D13        2.43318  -0.00275   0.00000  -0.03655  -0.03638   2.39679
   D14       -2.95372   0.00687   0.00000   0.07692   0.07668  -2.87704
   D15        0.32649   0.00345   0.00000   0.01878   0.01870   0.34519
   D16        0.34171  -0.00860   0.00000  -0.13670  -0.13803   0.20368
   D17        3.06510   0.00544   0.00000   0.07814   0.07802  -3.14006
   D18       -2.93353  -0.00532   0.00000  -0.07988  -0.08179  -3.01532
   D19       -0.21014   0.00873   0.00000   0.13497   0.13426  -0.07588
   D20        0.43997  -0.01278   0.00000  -0.19351  -0.19387   0.24610
   D21       -3.11925  -0.00102   0.00000  -0.02238  -0.02313   3.14081
   D22       -2.56630  -0.01646   0.00000  -0.25228  -0.25154  -2.81784
   D23        0.15766  -0.00470   0.00000  -0.08114  -0.08080   0.07686
   D24       -2.83240  -0.01002   0.00000  -0.15669  -0.15766  -2.99006
   D25        0.18843  -0.00723   0.00000  -0.11528  -0.11677   0.07167
   D26       -0.10963   0.00439   0.00000   0.06049   0.05976  -0.04987
   D27        2.91121   0.00718   0.00000   0.10190   0.10066   3.01186
   D28        3.03650   0.00235   0.00000   0.04052   0.04114   3.07764
   D29       -0.10946   0.00306   0.00000   0.04673   0.04648  -0.06297
   D30       -0.22573   0.00541   0.00000   0.08329   0.08288  -0.14285
   D31        2.91150   0.00612   0.00000   0.08950   0.08823   2.99973
   D32        0.06037   0.00020   0.00000   0.00296   0.00375   0.06412
   D33       -2.75270  -0.00835   0.00000  -0.11953  -0.11784  -2.87054
   D34       -3.08580   0.00100   0.00000   0.00966   0.00931  -3.07649
   D35        0.38432  -0.00755   0.00000  -0.11283  -0.11228   0.27204
   D36       -0.08627  -0.00018   0.00000   0.01191   0.01206  -0.07421
   D37        2.72635   0.00729   0.00000   0.12873   0.13008   2.85643
   D38        2.63810   0.01141   0.00000   0.18175   0.18193   2.82002
   D39       -0.83247   0.01887   0.00000   0.29857   0.29994  -0.53253
         Item               Value     Threshold  Converged?
 Maximum Force            0.043406     0.000450     NO 
 RMS     Force            0.009124     0.000300     NO 
 Maximum Displacement     0.361433     0.001800     NO 
 RMS     Displacement     0.067171     0.001200     NO 
 Predicted change in Energy=-2.871676D-02
 GradGradGradGradGradGradGradGradGradGradGradGradGradGradGradGradGradGrad

                          Input orientation:                          
 ---------------------------------------------------------------------
 Center     Atomic      Atomic             Coordinates (Angstroms)
 Number     Number       Type             X           Y           Z
 ---------------------------------------------------------------------
      1          6           0      -28.601605   -6.864891  -22.092977
      2          6           0      -27.594973   -7.960597  -22.492016
      3          1           0      -27.333701   -8.542529  -21.613410
      4          1           0      -28.089506   -8.624253  -23.196415
      5          6           0      -26.330041   -7.423574  -23.135557
      6          6           0      -25.338020   -6.804278  -22.371880
      7          1           0      -25.387489   -6.877470  -21.294718
      8          6           0      -24.177541   -6.307362  -22.948228
      9          1           0      -23.373042   -5.963351  -22.322512
     10          6           0      -23.985762   -6.329135  -24.344402
     11          8           0      -22.912650   -5.791666  -24.901542
     12          6           0      -26.153296   -7.442291  -24.520059
     13          1           0      -27.013968   -7.629262  -25.146936
     14          6           0      -24.984590   -6.944983  -25.113289
     15          1           0      -24.749650   -7.200933  -26.134392
     16          1           0      -28.882058   -6.279314  -22.962444
     17          1           0      -28.182471   -6.188712  -21.353237
     18          1           0      -29.503636   -7.302398  -21.673985
 ---------------------------------------------------------------------
                    Distance matrix (angstroms):
                    1          2          3          4          5
     1  C    0.000000
     2  C    1.540490   0.000000
     3  H    2.156857   1.085751   0.000000
     4  H    2.138966   1.086821   1.756082   0.000000
     5  C    2.561075   1.517430   2.139235   2.130974   0.000000
     6  C    3.276041   2.538769   2.753096   3.400418   1.396723
     7  H    3.311784   2.734899   2.581032   3.737458   2.139000
     8  C    4.540335   3.823632   4.091340   4.553356   2.431929
     9  H    5.310681   4.673589   4.779310   5.485357   3.396636
    10  C    5.163522   4.372575   4.854495   4.840057   2.855652
    11  O    6.434599   5.695106   6.158307   6.142543   4.178563
    12  C    3.495474   2.541660   3.324528   2.626400   1.395863
    13  H    3.525836   2.737873   3.663617   2.439533   2.134410
    14  C    4.712908   3.836228   4.507730   4.016821   2.439408
    15  H    5.593167   4.684000   5.377404   4.670352   3.397089
    16  H    1.085140   2.169010   3.056050   2.486287   2.802158
    17  H    1.086327   2.186676   2.515662   3.055783   2.851850
    18  H    1.086567   2.178393   2.500042   2.462694   3.496081
                    6          7          8          9         10
     6  C    0.000000
     7  H    1.080779   0.000000
     8  C    1.387737   2.126757   0.000000
     9  H    2.137928   2.439257   1.075677   0.000000
    10  C    2.438279   3.400894   1.409452   2.144122   0.000000
    11  O    3.647875   4.506992   2.383553   2.625420   1.323196
    12  C    2.384619   3.362783   2.768091   3.840090   2.442985
    13  H    3.345196   4.248553   3.824533   4.899895   3.391817
    14  C    2.767677   3.840361   2.396952   3.368846   1.402896
    15  H    3.828839   4.892230   3.358187   4.237580   2.132516
    16  H    3.631055   3.918050   4.704623   5.555052   5.087829
    17  H    3.083417   2.879190   4.312487   4.911303   5.155498
    18  H    4.252945   4.155367   5.566066   6.308552   6.206876
                   11         12         13         14         15
    11  O    0.000000
    12  C    3.656758   0.000000
    13  H    4.500865   1.081059   0.000000
    14  C    2.380738   1.401824   2.141902   0.000000
    15  H    2.623075   2.152800   2.507124   1.078591   0.000000
    16  H    6.295374   3.350347   3.175552   4.501056   5.290315
    17  H    6.365464   3.964565   4.222883   4.993634   5.972295
    18  H    7.492699   4.398237   4.285636   5.690196   6.519656
                   16         17         18
    16  H    0.000000
    17  H    1.757036   0.000000
    18  H    1.758745   1.757457   0.000000
 Stoichiometry    C8H9O(1-)
 Framework group  C1[X(C8H9O)]
 Deg. of freedom    48
 Full point group                 C1      NOp   1
 Largest Abelian subgroup         C1      NOp   1
 Largest concise Abelian subgroup C1      NOp   1
                         Standard orientation:                         
 ---------------------------------------------------------------------
 Center     Atomic      Atomic             Coordinates (Angstroms)
 Number     Number       Type             X           Y           Z
 ---------------------------------------------------------------------
      1          6           0       -3.151972   -0.177240    0.750824
      2          6           0       -2.356227    0.154457   -0.525843
      3          1           0       -2.650520   -0.527946   -1.317408
      4          1           0       -2.628962    1.160251   -0.834344
      5          6           0       -0.851296    0.093560   -0.341267
      6          6           0       -0.183178   -1.129943   -0.254695
      7          1           0       -0.716850   -2.034572   -0.509497
      8          6           0        1.192280   -1.199481   -0.084125
      9          1           0        1.694709   -2.147516   -0.160784
     10          6           0        1.967816   -0.036318    0.095178
     11          8           0        3.268384   -0.103933    0.329265
     12          6           0       -0.093234    1.250944   -0.156233
     13          1           0       -0.607592    2.170849    0.084392
     14          6           0        1.296880    1.193132    0.015092
     15          1           0        1.890744    2.085187   -0.107062
     16          1           0       -2.877501    0.502919    1.550560
     17          1           0       -2.957317   -1.190773    1.089891
     18          1           0       -4.220199   -0.081598    0.576554
 ---------------------------------------------------------------------
 Rotational constants (GHZ):      4.5191634      0.9608606      0.8486602
 Standard basis: 6-31G(d) (6D, 7F)
 There are   153 symmetry adapted cartesian basis functions of A   symmetry.
 There are   153 symmetry adapted basis functions of A   symmetry.
   153 basis functions,   288 primitive gaussians,   153 cartesian basis functions
    33 alpha electrons       33 beta electrons
       nuclear repulsion energy       405.8656814715 Hartrees.
 NAtoms=   18 NActive=   18 NUniq=   18 SFac= 1.00D+00 NAtFMM=   60 NAOKFM=F Big=F
 Integral buffers will be    131072 words long.
 Raffenetti 1 integral format.
 Two-electron integral symmetry is turned on.
 ------------------------------------------------------------------------------
 Polarizable Continuum Model (PCM)
 =================================
 Model                : PCM (using non-symmetric T matrix).
 Atomic radii         : SMD-Coulomb.
 Polarization charges : Total charges.
 Charge compensation  : None.
 Solution method      : On-the-fly selection.
 Cavity type          : VdW (van der Waals Surface) (Alpha=1.000).
 Cavity algorithm     : GePol (No added spheres)
                        Default sphere list used, NSphG=   18.
                        Lebedev-Laikov grids with approx.  5.0 points / Ang**2.
                        Smoothing algorithm: York/Karplus (Gamma=1.0000).
                        Polarization charges: spherical gaussians, with
                                              point-specific exponents (IZeta= 3).
                        Self-potential: point-specific (ISelfS= 7).
                        Self-field    : sphere-specific E.n sum rule (ISelfD= 2).
 1st derivatives      : Analytical E(r).r(x)/FMM algorithm (CHGder, D1EAlg=3).
                        Cavity 1st derivative terms included.
 Solvent              : Water, Eps=  78.355300 Eps(inf)=   1.777849
 ------------------------------------------------------------------------------
 Spheres list:
 ISph  on   Nord     Re0    Alpha      Xe            Ye            Ze
    1   C      1    1.8500  1.000     -3.151972     -0.177240      0.750824
    2   C      2    1.8500  1.000     -2.356227      0.154457     -0.525843
    3   H      3    1.2000  1.000     -2.650520     -0.527946     -1.317408
    4   H      4    1.2000  1.000     -2.628962      1.160251     -0.834344
    5   C      5    1.8500  1.000     -0.851296      0.093560     -0.341267
    6   C      6    1.8500  1.000     -0.183178     -1.129943     -0.254695
    7   H      7    1.2000  1.000     -0.716850     -2.034572     -0.509497
    8   C      8    1.8500  1.000      1.192280     -1.199481     -0.084125
    9   H      9    1.2000  1.000      1.694709     -2.147516     -0.160784
   10   C     10    1.8500  1.000      1.967816     -0.036318      0.095178
   11   O     11    1.5200  1.000      3.268384     -0.103933      0.329265
   12   C     12    1.8500  1.000     -0.093234      1.250944     -0.156233
   13   H     13    1.2000  1.000     -0.607592      2.170849      0.084392
   14   C     14    1.8500  1.000      1.296880      1.193132      0.015092
   15   H     15    1.2000  1.000      1.890744      2.085187     -0.107062
   16   H     16    1.2000  1.000     -2.877501      0.502919      1.550560
   17   H     17    1.2000  1.000     -2.957317     -1.190773      1.089891
   18   H     18    1.2000  1.000     -4.220199     -0.081598      0.576554
 ------------------------------------------------------------------------------
 ------------------------------------------------------------------------------
 Atomic radii for non-electrostatic terms: SMD-CDS.
 ------------------------------------------------------------------------------
 Nuclear repulsion after PCM non-electrostatic terms =      405.8720841103 Hartrees.
 One-electron integrals computed using PRISM.
 NBasis=   153 RedAO= T EigKep=  5.69D-04  NBF=   153
 NBsUse=   153 1.00D-06 EigRej= -1.00D+00 NBFU=   153
 Initial guess from the checkpoint file:  "tyr-.chk"
 B after Tr=    -0.000000    0.000000    0.000000
         Rot=    0.999960   -0.008563    0.000352    0.002690 Ang=  -1.03 deg.
 ExpMin= 1.61D-01 ExpMax= 5.48D+03 ExpMxC= 8.25D+02 IAcc=1 IRadAn=         1 AccDes= 0.00D+00
 Harris functional with IExCor=  205 and IRadAn=       1 diagonalized for initial guess.
 HarFok:  IExCor=  205 AccDes= 0.00D+00 IRadAn=         1 IDoV= 1 UseB2=F ITyADJ=14
 ICtDFT=  3500011 ScaDFX=  1.000000  1.000000  1.000000  1.000000
 FoFCou: FMM=F IPFlag=           0 FMFlag=      100000 FMFlg1=           0
         NFxFlg=           0 DoJE=T BraDBF=F KetDBF=T FulRan=T
         wScrn=  0.000000 ICntrl=     500 IOpCl=  0 I1Cent=   200000004 NGrid=           0
         NMat0=    1 NMatS0=      1 NMatT0=    0 NMatD0=    1 NMtDS0=    0 NMtDT0=    0
 Petite list used in FoFCou.
 Keep R1 ints in memory in canonical form, NReq=74781062.
 Requested convergence on RMS density matrix=1.00D-08 within 128 cycles.
 Requested convergence on MAX density matrix=1.00D-06.
 Requested convergence on             energy=1.00D-06.
 No special actions if energy rises.
 Inv3:  Mode=1 IEnd=     6117552.
 Iteration    1 A*A^-1 deviation from unit magnitude is 3.00D-15 for   1422.
 Iteration    1 A*A^-1 deviation from orthogonality  is 2.66D-15 for   1237   1019.
 Iteration    1 A^-1*A deviation from unit magnitude is 3.22D-15 for   1405.
 Iteration    1 A^-1*A deviation from orthogonality  is 2.06D-09 for    712    681.
 Iteration    2 A*A^-1 deviation from unit magnitude is 2.22D-15 for    372.
 Iteration    2 A*A^-1 deviation from orthogonality  is 3.81D-15 for   1419     48.
 Iteration    2 A^-1*A deviation from unit magnitude is 1.11D-15 for     64.
 Iteration    2 A^-1*A deviation from orthogonality  is 5.48D-16 for   1414     34.
 Error on total polarization charges =  0.04345
 SCF Done:  E(RHF) =  -383.131910714     A.U. after   13 cycles
            NFock= 13  Conv=0.53D-08     -V/T= 2.0012
 SMD-CDS (non-electrostatic) energy       (kcal/mol) =       4.02
 (included in total energy above)
 D1PCM: PCM CHGder 1st derivatives, ID1Alg=3 FixD1E=F DoIter=F DoCFld=F I1PDM=0.
 Calling FoFJK, ICntrl=      2127 FMM=F ISym2X=0 I1Cent= 0 IOpClX= 0 NMat=1 NMatS=1 NMatT=0.
 ***** Axes restored to original set *****
 -------------------------------------------------------------------
 Center     Atomic                   Forces (Hartrees/Bohr)
 Number     Number              X              Y              Z
 -------------------------------------------------------------------
      1        6           0.003693099   -0.003398030   -0.000411530
      2        6          -0.003102167    0.007114784   -0.002898968
      3        1          -0.001191346   -0.001525117    0.000176031
      4        1           0.001195243   -0.002095383    0.002279756
      5        6          -0.008593417    0.011262169   -0.004367663
      6        6           0.017286723   -0.020583718   -0.000728999
      7        1          -0.003189457    0.006388613   -0.001115020
      8        6          -0.011392850   -0.003031884    0.005324814
      9        1          -0.000708933    0.005277298    0.000004313
     10        6           0.030596283    0.014498732   -0.015336194
     11        8          -0.018904660   -0.014468997    0.011971571
     12        6           0.002896703    0.022529172    0.002509208
     13        1           0.006450486   -0.018235740   -0.000794554
     14        6          -0.007430589   -0.017224133    0.007784195
     15        1          -0.006859334    0.012707296   -0.004197760
     16        1          -0.000822385    0.000845874   -0.000075188
     17        1           0.000291248   -0.000184954   -0.000314495
     18        1          -0.000214647    0.000124017    0.000190483
 -------------------------------------------------------------------
 Cartesian Forces:  Max     0.030596283 RMS     0.009553461

 GradGradGradGradGradGradGradGradGradGradGradGradGradGradGradGradGradGrad
 Berny optimization.
 Using GEDIIS/GDIIS optimizer.
 FormGI is forming the generalized inverse of G from B-inverse, IUseBI=4.
 Internal  Forces:  Max     0.026249592 RMS     0.004133707
 Search for a local minimum.
 Step number   2 out of a maximum of   97
 All quantities printed in internal units (Hartrees-Bohrs-Radians)
 Mixed Optimization -- RFO/linear search
 Update second derivatives using D2CorX and points    1    2
 DE= -2.81D-02 DEPred=-2.87D-02 R= 9.77D-01
 TightC=F SS=  1.41D+00  RLast= 6.69D-01 DXNew= 5.0454D-01 2.0078D+00
 Trust test= 9.77D-01 RLast= 6.69D-01 DXMaxT set to 5.05D-01
 ITU=  1  0
 Use linear search instead of GDIIS.
     Eigenvalues ---    0.00442   0.00781   0.01703   0.02185   0.02344
     Eigenvalues ---    0.02353   0.02375   0.02391   0.02414   0.02454
     Eigenvalues ---    0.02851   0.04161   0.05532   0.05563   0.05665
     Eigenvalues ---    0.09558   0.12961   0.15526   0.15708   0.15767
     Eigenvalues ---    0.15934   0.15975   0.16000   0.16194   0.21916
     Eigenvalues ---    0.22037   0.22761   0.23497   0.24919   0.25256
     Eigenvalues ---    0.30332   0.32578   0.34761   0.34790   0.34818
     Eigenvalues ---    0.34872   0.34884   0.36019   0.36028   0.36039
     Eigenvalues ---    0.36126   0.41872   0.44075   0.45720   0.48637
     Eigenvalues ---    0.48938   0.49637   0.54999
 RFO step:  Lambda=-1.14894953D-02 EMin= 4.41773165D-03
 Quartic linear search produced a step of  0.77944.
 Iteration  1 RMS(Cart)=  0.05732686 RMS(Int)=  0.02760248
 Iteration  2 RMS(Cart)=  0.02056301 RMS(Int)=  0.00337531
 Iteration  3 RMS(Cart)=  0.00085283 RMS(Int)=  0.00322300
 Iteration  4 RMS(Cart)=  0.00000078 RMS(Int)=  0.00322300
 Variable       Old X    -DE/DX   Delta X   Delta X   Delta X     New X
                                 (Linear)    (Quad)   (Total)
    R1        2.91110  -0.00394   0.02354  -0.04384  -0.02030   2.89080
    R2        2.05062   0.00072  -0.00761   0.01056   0.00294   2.05356
    R3        2.05286  -0.00021  -0.00446   0.00325  -0.00121   2.05165
    R4        2.05331   0.00020  -0.00569   0.00631   0.00062   2.05394
    R5        2.05177   0.00069  -0.00585   0.00874   0.00289   2.05466
    R6        2.05379  -0.00076  -0.00442   0.00062  -0.00380   2.05000
    R7        2.86753  -0.00063   0.02736  -0.02910  -0.00175   2.86578
    R8        2.63942  -0.00051   0.02422  -0.02483  -0.00054   2.63889
    R9        2.63780  -0.00469   0.01780  -0.03410  -0.01538   2.62241
   R10        2.04238  -0.00141   0.00145  -0.00775  -0.00630   2.03608
   R11        2.62244  -0.00650   0.01329  -0.03316  -0.02068   2.60176
   R12        2.03274   0.00115  -0.00553   0.01043   0.00490   2.03763
   R13        2.66348   0.00371   0.04799  -0.03049   0.01657   2.68004
   R14        2.50048  -0.02625  -0.06035  -0.02747  -0.08782   2.41266
   R15        2.65109   0.00498   0.02886  -0.00906   0.01975   2.67084
   R16        2.04291  -0.00152   0.00187  -0.00864  -0.00677   2.03613
   R17        2.64906  -0.00890   0.02893  -0.05780  -0.02805   2.62101
   R18        2.03824  -0.00053  -0.00151  -0.00097  -0.00248   2.03576
    A1        1.92320   0.00140   0.00944   0.00609   0.01539   1.93859
    A2        1.94658  -0.00083   0.02810  -0.03798  -0.01018   1.93640
    A3        1.93474   0.00021   0.01922  -0.01716   0.00176   1.93650
    A4        1.88540  -0.00034  -0.01975   0.01678  -0.00310   1.88230
    A5        1.88778  -0.00061  -0.01725   0.01481  -0.00259   1.88519
    A6        1.88425   0.00013  -0.02121   0.02001  -0.00162   1.88263
    A7        1.90588  -0.00040  -0.01934   0.01121  -0.00783   1.89805
    A8        1.88061   0.00165   0.04628  -0.02542   0.02059   1.90120
    A9        1.98543  -0.00090   0.01009  -0.01264  -0.00305   1.98238
   A10        1.88251  -0.00158  -0.03319   0.00672  -0.02608   1.85642
   A11        1.90951   0.00072  -0.00118   0.00668   0.00548   1.91499
   A12        1.89710   0.00045  -0.00338   0.01399   0.00945   1.90655
   A13        2.11426   0.00047   0.01173  -0.00286   0.00583   2.12009
   A14        2.11935   0.00051  -0.00038   0.00907   0.00563   2.12498
   A15        2.04691  -0.00087  -0.00719  -0.00458  -0.00885   2.03806
   A16        2.07419   0.00022   0.02424  -0.00328   0.00849   2.08268
   A17        2.12425   0.00102   0.00399   0.00964   0.00440   2.12864
   A18        2.06741  -0.00013   0.01685   0.00005   0.00445   2.07186
   A19        2.09249   0.00006  -0.00390   0.00581   0.00047   2.09296
   A20        2.11724   0.00117   0.02629  -0.01311   0.01339   2.13063
   A21        2.07076  -0.00111  -0.01953   0.00979  -0.01121   2.05954
   A22        2.11901   0.00174   0.04734  -0.03563   0.01084   2.12985
   A23        2.04072  -0.00494  -0.03564   0.00470  -0.02921   2.01151
   A24        2.12346   0.00321  -0.01169   0.03093   0.01837   2.14183
   A25        2.06765  -0.00013   0.01211   0.01042   0.01008   2.07773
   A26        2.11829   0.00242   0.01017   0.00793   0.01253   2.13082
   A27        2.07112  -0.00092   0.01616  -0.00066   0.00308   2.07419
   A28        2.11458   0.00145   0.01433  -0.00152   0.01141   2.12599
   A29        2.05776  -0.00017  -0.00862   0.01960   0.00413   2.06189
   A30        2.09214  -0.00048   0.01630  -0.00791   0.00170   2.09384
    D1       -3.13129   0.00039   0.00787   0.00425   0.01226  -3.11903
    D2       -1.09098  -0.00079  -0.01539   0.00418  -0.01167  -1.10265
    D3        1.01341   0.00037   0.01671  -0.00396   0.01307   1.02648
    D4        1.05805   0.00042   0.00856   0.00384   0.01262   1.07067
    D5        3.09836  -0.00076  -0.01470   0.00377  -0.01131   3.08705
    D6       -1.08043   0.00040   0.01741  -0.00437   0.01343  -1.06700
    D7       -1.04212   0.00067   0.00454   0.01567   0.02028  -1.02184
    D8        0.99820  -0.00051  -0.01872   0.01560  -0.00365   0.99454
    D9        3.10259   0.00065   0.01338   0.00746   0.02109   3.12367
   D10        1.31105   0.00014  -0.00203   0.03121   0.02924   1.34029
   D11       -1.74991  -0.00154  -0.04722   0.00692  -0.04026  -1.79017
   D12       -0.82544   0.00074   0.01683   0.02052   0.03744  -0.78800
   D13        2.39679  -0.00094  -0.02836  -0.00377  -0.03206   2.36473
   D14       -2.87704   0.00197   0.05977   0.00064   0.06030  -2.81674
   D15        0.34519   0.00030   0.01458  -0.02365  -0.00921   0.33599
   D16        0.20368  -0.00458  -0.10759  -0.05250  -0.16127   0.04242
   D17       -3.14006   0.00180   0.06081  -0.01562   0.04485  -3.09521
   D18       -3.01532  -0.00291  -0.06375  -0.02857  -0.09446  -3.10978
   D19       -0.07588   0.00347   0.10465   0.00831   0.11165   0.03577
   D20        0.24610  -0.00708  -0.15111  -0.09757  -0.24917  -0.00307
   D21        3.14081  -0.00086  -0.01803  -0.01554  -0.03459   3.10622
   D22       -2.81784  -0.00876  -0.19606  -0.12101  -0.31618  -3.13402
   D23        0.07686  -0.00253  -0.06298  -0.03898  -0.10160  -0.02474
   D24       -2.99006  -0.00462  -0.12289  -0.03151  -0.15534   3.13779
   D25        0.07167  -0.00286  -0.09101   0.00595  -0.08651  -0.01484
   D26       -0.04987   0.00177   0.04658   0.00486   0.05000   0.00013
   D27        3.01186   0.00353   0.07845   0.04231   0.11883   3.13069
   D28        3.07764   0.00132   0.03206   0.01143   0.04419   3.12183
   D29       -0.06297   0.00147   0.03623   0.00982   0.04558  -0.01739
   D30       -0.14285   0.00312   0.06460   0.04827   0.11225  -0.03060
   D31        2.99973   0.00326   0.06877   0.04666   0.11364   3.11337
   D32        0.06412  -0.00060   0.00293  -0.03976  -0.03583   0.02829
   D33       -2.87054  -0.00490  -0.09185  -0.09441  -0.18450  -3.05504
   D34       -3.07649  -0.00046   0.00726  -0.04134  -0.03442  -3.11090
   D35        0.27204  -0.00476  -0.08752  -0.09598  -0.18309   0.08895
   D36       -0.07421   0.00102   0.00940   0.05624   0.06663  -0.00757
   D37        2.85643   0.00545   0.10139   0.11517   0.21828   3.07472
   D38        2.82002   0.00736   0.14180   0.13995   0.28175   3.10178
   D39       -0.53253   0.01179   0.23379   0.19888   0.43340  -0.09912
         Item               Value     Threshold  Converged?
 Maximum Force            0.026250     0.000450     NO 
 RMS     Force            0.004134     0.000300     NO 
 Maximum Displacement     0.445587     0.001800     NO 
 RMS     Displacement     0.072873     0.001200     NO 
 Predicted change in Energy=-1.262217D-02
 GradGradGradGradGradGradGradGradGradGradGradGradGradGradGradGradGradGrad

                          Input orientation:                          
 ---------------------------------------------------------------------
 Center     Atomic      Atomic             Coordinates (Angstroms)
 Number     Number       Type             X           Y           Z
 ---------------------------------------------------------------------
      1          6           0      -28.586007   -6.844762  -22.090616
      2          6           0      -27.610840   -7.946136  -22.510319
      3          1           0      -27.365510   -8.546818  -21.637866
      4          1           0      -28.109298   -8.610300  -23.208345
      5          6           0      -26.337440   -7.419908  -23.143822
      6          6           0      -25.313823   -6.866500  -22.371816
      7          1           0      -25.413145   -6.847494  -21.299127
      8          6           0      -24.177079   -6.337089  -22.940226
      9          1           0      -23.408613   -5.914786  -22.312702
     10          6           0      -23.966502   -6.336432  -24.342723
     11          8           0      -22.921820   -5.826289  -24.870377
     12          6           0      -26.137331   -7.452259  -24.516659
     13          1           0      -26.906816   -7.865056  -25.147883
     14          6           0      -24.993462   -6.935598  -25.106860
     15          1           0      -24.844815   -7.033786  -26.169305
     16          1           0      -28.874895   -6.233607  -22.941466
     17          1           0      -28.137545   -6.191352  -21.348559
     18          1           0      -29.489059   -7.268829  -21.659329
 ---------------------------------------------------------------------
                    Distance matrix (angstroms):
                    1          2          3          4          5
     1  C    0.000000
     2  C    1.529747   0.000000
     3  H    2.142800   1.087281   0.000000
     4  H    2.143291   1.084811   1.738866   0.000000
     5  C    2.548742   1.516506   2.143539   2.135574   0.000000
     6  C    3.284316   2.541866   2.751649   3.399308   1.396440
     7  H    3.270094   2.739318   2.610398   3.744575   2.141233
     8  C    4.518652   3.816356   4.092083   4.549915   2.425100
     9  H    5.264939   4.671633   4.800004   5.492214   3.396201
    10  C    5.164321   4.385208   4.873942   4.860046   2.869256
    11  O    6.391194   5.661319   6.131622   6.117433   4.145729
    12  C    3.500108   2.537824   3.315711   2.634654   1.387722
    13  H    3.634221   2.731111   3.604916   2.400657   2.130400
    14  C    4.691733   3.822811   4.500729   4.014650   2.427829
    15  H    5.537865   4.676693   5.401584   4.680761   3.395669
    16  H    1.086698   2.171746   3.054270   2.511183   2.808369
    17  H    1.085684   2.169417   2.495588   3.051379   2.823597
    18  H    1.086897   2.170399   2.478543   2.470372   3.487011
                    6          7          8          9         10
     6  C    0.000000
     7  H    1.077445   0.000000
     8  C    1.376791   2.116974   0.000000
     9  H    2.130512   2.432165   1.078270   0.000000
    10  C    2.445551   3.408436   1.418218   2.147093   0.000000
    11  O    3.611997   4.472514   2.358405   2.605091   1.276724
    12  C    2.370998   3.353014   2.751606   3.829771   2.447002
    13  H    3.352803   4.251989   3.828825   4.907059   3.410340
    14  C    2.754609   3.831805   2.391443   3.370626   1.413348
    15  H    3.829997   4.906765   3.370195   4.264765   2.143394
    16  H    3.661460   3.880445   4.698956   5.511555   5.105528
    17  H    3.078358   2.802735   4.270824   4.834135   5.136504
    18  H    4.254656   4.113434   5.543101   6.263557   6.210362
                   11         12         13         14         15
    11  O    0.000000
    12  C    3.620552   0.000000
    13  H    4.484838   1.077475   0.000000
    14  C    2.361819   1.386979   2.127557   0.000000
    15  H    2.615946   2.139382   2.446664   1.077277   0.000000
    16  H    6.271021   3.385352   3.376869   4.499695   5.225015
    17  H    6.303988   3.953177   4.330224   4.956207   5.898420
    18  H    7.451199   4.408182   4.381035   5.675113   6.477973
                   16         17         18
    16  H    0.000000
    17  H    1.755797   0.000000
    18  H    1.758623   1.756167   0.000000
 Stoichiometry    C8H9O(1-)
 Framework group  C1[X(C8H9O)]
 Deg. of freedom    48
 Full point group                 C1      NOp   1
 Largest Abelian subgroup         C1      NOp   1
 Largest concise Abelian subgroup C1      NOp   1
                         Standard orientation:                         
 ---------------------------------------------------------------------
 Center     Atomic      Atomic             Coordinates (Angstroms)
 Number     Number       Type             X           Y           Z
 ---------------------------------------------------------------------
      1          6           0       -3.137012   -0.193220    0.757996
      2          6           0       -2.355167    0.169671   -0.505790
      3          1           0       -2.660410   -0.496572   -1.308987
      4          1           0       -2.633814    1.170932   -0.816671
      5          6           0       -0.850551    0.102015   -0.328751
      6          6           0       -0.172698   -1.118742   -0.311107
      7          1           0       -0.724658   -2.031158   -0.465134
      8          6           0        1.185268   -1.195322   -0.097520
      9          1           0        1.674705   -2.156055   -0.087133
     10          6           0        1.982934   -0.039473    0.100174
     11          8           0        3.238595   -0.112624    0.319236
     12          6           0       -0.082479    1.245944   -0.163628
     13          1           0       -0.569024    2.207311   -0.164202
     14          6           0        1.288332    1.189940    0.039968
     15          1           0        1.860720    2.100433    0.102416
     16          1           0       -2.876739    0.466460    1.581400
     17          1           0       -2.923581   -1.211762    1.067398
     18          1           0       -4.207720   -0.113483    0.588973
 ---------------------------------------------------------------------
 Rotational constants (GHZ):      4.5230609      0.9690546      0.8555497
 Standard basis: 6-31G(d) (6D, 7F)
 There are   153 symmetry adapted cartesian basis functions of A   symmetry.
 There are   153 symmetry adapted basis functions of A   symmetry.
   153 basis functions,   288 primitive gaussians,   153 cartesian basis functions
    33 alpha electrons       33 beta electrons
       nuclear repulsion energy       407.5567007151 Hartrees.
 NAtoms=   18 NActive=   18 NUniq=   18 SFac= 1.00D+00 NAtFMM=   60 NAOKFM=F Big=F
 Integral buffers will be    131072 words long.
 Raffenetti 1 integral format.
 Two-electron integral symmetry is turned on.
 ------------------------------------------------------------------------------
 Polarizable Continuum Model (PCM)
 =================================
 Model                : PCM (using non-symmetric T matrix).
 Atomic radii         : SMD-Coulomb.
 Polarization charges : Total charges.
 Charge compensation  : None.
 Solution method      : On-the-fly selection.
 Cavity type          : VdW (van der Waals Surface) (Alpha=1.000).
 Cavity algorithm     : GePol (No added spheres)
                        Default sphere list used, NSphG=   18.
                        Lebedev-Laikov grids with approx.  5.0 points / Ang**2.
                        Smoothing algorithm: York/Karplus (Gamma=1.0000).
                        Polarization charges: spherical gaussians, with
                                              point-specific exponents (IZeta= 3).
                        Self-potential: point-specific (ISelfS= 7).
                        Self-field    : sphere-specific E.n sum rule (ISelfD= 2).
 1st derivatives      : Analytical E(r).r(x)/FMM algorithm (CHGder, D1EAlg=3).
                        Cavity 1st derivative terms included.
 Solvent              : Water, Eps=  78.355300 Eps(inf)=   1.777849
 ------------------------------------------------------------------------------
 Spheres list:
 ISph  on   Nord     Re0    Alpha      Xe            Ye            Ze
    1   C      1    1.8500  1.000     -3.137012     -0.193220      0.757996
    2   C      2    1.8500  1.000     -2.355167      0.169671     -0.505790
    3   H      3    1.2000  1.000     -2.660410     -0.496572     -1.308987
    4   H      4    1.2000  1.000     -2.633814      1.170932     -0.816671
    5   C      5    1.8500  1.000     -0.850551      0.102015     -0.328751
    6   C      6    1.8500  1.000     -0.172698     -1.118742     -0.311107
    7   H      7    1.2000  1.000     -0.724658     -2.031158     -0.465134
    8   C      8    1.8500  1.000      1.185268     -1.195322     -0.097520
    9   H      9    1.2000  1.000      1.674705     -2.156055     -0.087133
   10   C     10    1.8500  1.000      1.982934     -0.039473      0.100174
   11   O     11    1.5200  1.000      3.238595     -0.112624      0.319236
   12   C     12    1.8500  1.000     -0.082479      1.245944     -0.163628
   13   H     13    1.2000  1.000     -0.569024      2.207311     -0.164202
   14   C     14    1.8500  1.000      1.288332      1.189940      0.039968
   15   H     15    1.2000  1.000      1.860720      2.100433      0.102416
   16   H     16    1.2000  1.000     -2.876739      0.466460      1.581400
   17   H     17    1.2000  1.000     -2.923581     -1.211762      1.067398
   18   H     18    1.2000  1.000     -4.207720     -0.113483      0.588973
 ------------------------------------------------------------------------------
 ------------------------------------------------------------------------------
 Atomic radii for non-electrostatic terms: SMD-CDS.
 ------------------------------------------------------------------------------
 Nuclear repulsion after PCM non-electrostatic terms =      407.5634132537 Hartrees.
 One-electron integrals computed using PRISM.
 NBasis=   153 RedAO= T EigKep=  4.38D-04  NBF=   153
 NBsUse=   153 1.00D-06 EigRej= -1.00D+00 NBFU=   153
 Initial guess from the checkpoint file:  "tyr-.chk"
 B after Tr=     0.000000   -0.000000   -0.000000
         Rot=    0.999989   -0.004711   -0.000121    0.000134 Ang=  -0.54 deg.
 ExpMin= 1.61D-01 ExpMax= 5.48D+03 ExpMxC= 8.25D+02 IAcc=1 IRadAn=         1 AccDes= 0.00D+00
 Harris functional with IExCor=  205 and IRadAn=       1 diagonalized for initial guess.
 HarFok:  IExCor=  205 AccDes= 0.00D+00 IRadAn=         1 IDoV= 1 UseB2=F ITyADJ=14
 ICtDFT=  3500011 ScaDFX=  1.000000  1.000000  1.000000  1.000000
 FoFCou: FMM=F IPFlag=           0 FMFlag=      100000 FMFlg1=           0
         NFxFlg=           0 DoJE=T BraDBF=F KetDBF=T FulRan=T
         wScrn=  0.000000 ICntrl=     500 IOpCl=  0 I1Cent=   200000004 NGrid=           0
         NMat0=    1 NMatS0=      1 NMatT0=    0 NMatD0=    1 NMtDS0=    0 NMtDT0=    0
 Petite list used in FoFCou.
 Keep R1 ints in memory in canonical form, NReq=74793736.
 Requested convergence on RMS density matrix=1.00D-08 within 128 cycles.
 Requested convergence on MAX density matrix=1.00D-06.
 Requested convergence on             energy=1.00D-06.
 No special actions if energy rises.
 Inv3:  Mode=1 IEnd=     6151872.
[...]
 ! D19   D(12,5,6,8)             0.1215         -DE/DX =    0.0                 !
 ! D20   D(2,5,12,13)           -1.7845         -DE/DX =    0.0                 !
 ! D21   D(2,5,12,14)          178.4468         -DE/DX =    0.0                 !
 ! D22   D(6,5,12,13)          179.6461         -DE/DX =    0.0                 !
 ! D23   D(6,5,12,14)           -0.1226         -DE/DX =    0.0                 !
 ! D24   D(5,6,8,9)           -179.7424         -DE/DX =    0.0                 !
 ! D25   D(5,6,8,10)             0.0208         -DE/DX =    0.0                 !
 ! D26   D(7,6,8,9)              0.0238         -DE/DX =    0.0                 !
 ! D27   D(7,6,8,10)           179.7871         -DE/DX =    0.0                 !
 ! D28   D(6,8,10,11)         -179.9929         -DE/DX =    0.0                 !
 ! D29   D(6,8,10,14)           -0.1571         -DE/DX =    0.0                 !
 ! D30   D(9,8,10,11)           -0.2257         -DE/DX =    0.0                 !
 ! D31   D(9,8,10,14)          179.6101         -DE/DX =    0.0                 !
 ! D32   D(8,10,14,12)           0.156          -DE/DX =    0.0                 !
 ! D33   D(8,10,14,15)        -179.6083         -DE/DX =    0.0                 !
 ! D34   D(11,10,14,12)        179.9919         -DE/DX =    0.0                 !
 ! D35   D(11,10,14,15)          0.2275         -DE/DX =    0.0                 !
 ! D36   D(5,12,14,10)          -0.0186         -DE/DX =    0.0                 !
 ! D37   D(5,12,14,15)         179.7417         -DE/DX =    0.0                 !
 ! D38   D(13,12,14,10)       -179.7883         -DE/DX =    0.0                 !
 ! D39   D(13,12,14,15)         -0.028          -DE/DX =    0.0                 !
 --------------------------------------------------------------------------------
 GradGradGradGradGradGradGradGradGradGradGradGradGradGradGradGradGradGrad

                          Input orientation:                          
 ---------------------------------------------------------------------
 Center     Atomic      Atomic             Coordinates (Angstroms)
 Number     Number       Type             X           Y           Z
 ---------------------------------------------------------------------
      1          6           0      -28.641017   -6.866018  -22.196762
      2          6           0      -27.576408   -7.942062  -22.435287
      3          1           0      -27.324114   -8.401320  -21.483012
      4          1           0      -28.005853   -8.728301  -23.050756
      5          6           0      -26.317731   -7.414352  -23.092740
      6          6           0      -25.249646   -6.921680  -22.345496
      7          1           0      -25.309145   -6.942771  -21.268399
      8          6           0      -24.108985   -6.408687  -22.936449
      9          1           0      -23.304044   -6.041509  -22.320269
     10          6           0      -23.952881   -6.350564  -24.343426
     11          8           0      -22.894720   -5.874928  -24.903164
     12          6           0      -26.177515   -7.366642  -24.478557
     13          1           0      -26.975896   -7.742019  -25.099683
     14          6           0      -25.045663   -6.857845  -25.089334
     15          1           0      -24.976629   -6.843590  -26.165185
     16          1           0      -28.947959   -6.408292  -23.132994
     17          1           0      -28.260782   -6.078920  -21.551658
     18          1           0      -29.525011   -7.287502  -21.724831
 ---------------------------------------------------------------------
                    Distance matrix (angstroms):
                    1          2          3          4          5
     1  C    0.000000
     2  C    1.532369   0.000000
     3  H    2.144953   1.086921   0.000000
     4  H    2.144956   1.086921   1.740548   0.000000
     5  C    2.549726   1.514923   2.139658   2.139622   0.000000
     6  C    3.395087   2.542255   2.690099   3.370155   1.393522
     7  H    3.459641   2.738739   2.496702   3.692851   2.137254
     8  C    4.614716   3.824321   4.052175   4.536437   2.431943
     9  H    5.401699   4.677438   4.736103   5.464382   3.400547
    10  C    5.181937   4.393610   4.873682   4.873521   2.878954
    11  O    6.428592   5.681695   6.140002   6.139774   4.167069
    12  C    3.395004   2.542236   3.370243   2.689898   1.393710
    13  H    3.459329   2.738547   3.692729   2.496330   2.137375
    14  C    4.614500   3.824155   4.536432   4.051806   2.431922
    15  H    5.401539   4.677353   5.464426   4.735821   3.400624
    16  H    1.086396   2.172647   3.054746   2.505348   2.816359
    17  H    1.086398   2.172663   2.505115   3.054751   2.816693
    18  H    1.087112   2.174913   2.478510   2.478269   3.489113
                    6          7          8          9         10
     6  C    0.000000
     7  H    1.078946   0.000000
     8  C    1.383291   2.123210   0.000000
     9  H    2.135581   2.437034   1.078159   0.000000
    10  C    2.449387   3.412616   1.416803   2.147014   0.000000
    11  O    3.630844   4.492355   2.372194   2.620428   1.288115
    12  C    2.368307   3.352439   2.752198   3.830277   2.449422
    13  H    3.352378   4.253892   3.830997   4.909112   3.412725
    14  C    2.752150   3.830951   2.390403   3.371553   1.416999
    15  H    3.830229   4.909065   3.371451   4.268987   2.147077
    16  H    3.815919   4.123512   4.842965   5.713916   5.139969
    17  H    3.226044   3.088468   4.389056   5.016116   5.140600
    18  H    4.335642   4.254491   5.619045   6.372399   6.227641
                   11         12         13         14         15
    11  O    0.000000
    12  C    3.630736   0.000000
    13  H    4.492288   1.078944   0.000000
    14  C    2.372202   1.383116   2.123128   0.000000
    15  H    2.620180   2.135515   2.437117   1.078157   0.000000
    16  H    6.329272   3.225576   3.087998   4.388312   5.015490
    17  H    6.329994   3.816407   4.123750   4.843435   5.714456
    18  H    7.487183   4.335320   4.253727   5.618633   6.371937
                   16         17         18
    16  H    0.000000
    17  H    1.755369   0.000000
    18  H    1.757532   1.757536   0.000000
 Stoichiometry    C8H9O(1-)
 Framework group  C1[X(C8H9O)]
 Deg. of freedom    48
 Full point group                 C1      NOp   1
 Largest Abelian subgroup         C1      NOp   1
 Largest concise Abelian subgroup C1      NOp   1
                         Standard orientation:                         
 ---------------------------------------------------------------------
 Center     Atomic      Atomic             Coordinates (Angstroms)
 Number     Number       Type             X           Y           Z
 ---------------------------------------------------------------------
      1          6           0       -3.149714    0.000100    0.773539
      2          6           0       -2.358144   -0.000038   -0.538548
      3          1           0       -2.648097   -0.870302   -1.121614
      4          1           0       -2.647899    0.870246   -1.121682
      5          6           0       -0.856226   -0.000156   -0.340471
      6          6           0       -0.129922   -1.184192   -0.228920
      7          1           0       -0.647503   -2.127032   -0.314287
      8          6           0        1.236926   -1.195204   -0.016551
      9          1           0        1.760677   -2.134524    0.059542
     10          6           0        1.988524   -0.000056    0.101987
     11          8           0        3.261386    0.000159    0.299631
     12          6           0       -0.129932    1.184114   -0.228999
     13          1           0       -0.647673    2.126860   -0.314413
     14          6           0        1.236739    1.195199   -0.016636
     15          1           0        1.760593    2.134463    0.059399
     16          1           0       -2.914807    0.877613    1.369397
     17          1           0       -2.915519   -0.877756    1.369175
     18          1           0       -4.220356    0.000561    0.585024
 ---------------------------------------------------------------------
 Rotational constants (GHZ):      4.5518174      0.9609244      0.8514663

 **********************************************************************

            Population analysis using the SCF density.

 **********************************************************************

 Orbital symmetries:
       Occupied  (A) (A) (A) (A) (A) (A) (A) (A) (A) (A) (A) (A)
                 (A) (A) (A) (A) (A) (A) (A) (A) (A) (A) (A) (A)
                 (A) (A) (A) (A) (A) (A) (A) (A) (A)
       Virtual   (A) (A) (A) (A) (A) (A) (A) (A) (A) (A) (A) (A)
                 (A) (A) (A) (A) (A) (A) (A) (A) (A) (A) (A) (A)
                 (A) (A) (A) (A) (A) (A) (A) (A) (A) (A) (A) (A)
                 (A) (A) (A) (A) (A) (A) (A) (A) (A) (A) (A) (A)
                 (A) (A) (A) (A) (A) (A) (A) (A) (A) (A) (A) (A)
                 (A) (A) (A) (A) (A) (A) (A) (A) (A) (A) (A) (A)
                 (A) (A) (A) (A) (A) (A) (A) (A) (A) (A) (A) (A)
                 (A) (A) (A) (A) (A) (A) (A) (A) (A) (A) (A) (A)
                 (A) (A) (A) (A) (A) (A) (A) (A) (A) (A) (A) (A)
                 (A) (A) (A) (A) (A) (A) (A) (A) (A) (A) (A) (A)
 The electronic state is 1-A.
 Alpha  occ. eigenvalues --  -20.45493 -11.25646 -11.21200 -11.21196 -11.20864
 Alpha  occ. eigenvalues --  -11.20008 -11.19725 -11.18603 -11.18599  -1.27670
 Alpha  occ. eigenvalues --   -1.11747  -1.02720  -0.98657  -0.93953  -0.83325
 Alpha  occ. eigenvalues --   -0.80200  -0.75390  -0.64200  -0.62784  -0.60521
 Alpha  occ. eigenvalues --   -0.57224  -0.56650  -0.55212  -0.53047  -0.51520
 Alpha  occ. eigenvalues --   -0.49883  -0.48725  -0.45882  -0.45676  -0.41841
 Alpha  occ. eigenvalues --   -0.36725  -0.32117  -0.24562
 Alpha virt. eigenvalues --    0.16244   0.19565   0.25500   0.28413   0.29813
 Alpha virt. eigenvalues --    0.31406   0.33220   0.33630   0.35126   0.36062
 Alpha virt. eigenvalues --    0.37852   0.38881   0.42622   0.45374   0.46820
 Alpha virt. eigenvalues --    0.52006   0.54480   0.57130   0.58115   0.72127
 Alpha virt. eigenvalues --    0.72727   0.74015   0.75271   0.76196   0.77654
 Alpha virt. eigenvalues --    0.78653   0.81725   0.84892   0.84921   0.86066
 Alpha virt. eigenvalues --    0.86640   0.91785   0.93464   0.94876   0.95138
 Alpha virt. eigenvalues --    0.95522   1.01441   1.02846   1.06996   1.09912
 Alpha virt. eigenvalues --    1.11121   1.13487   1.13965   1.15667   1.17598
 Alpha virt. eigenvalues --    1.18800   1.19882   1.20927   1.23559   1.24644
 Alpha virt. eigenvalues --    1.26442   1.26508   1.29734   1.33039   1.34204
 Alpha virt. eigenvalues --    1.35267   1.39102   1.43294   1.47802   1.50881
 Alpha virt. eigenvalues --    1.53720   1.55647   1.67701   1.72020   1.74793
 Alpha virt. eigenvalues --    1.74971   1.76918   1.78508   1.82714   1.82796
 Alpha virt. eigenvalues --    1.96911   2.01536   2.04326   2.11394   2.12898
 Alpha virt. eigenvalues --    2.16215   2.16260   2.20306   2.23468   2.27635
 Alpha virt. eigenvalues --    2.30539   2.31718   2.33896   2.35777   2.37784
 Alpha virt. eigenvalues --    2.40224   2.42665   2.47665   2.50835   2.52802
 Alpha virt. eigenvalues --    2.61462   2.61540   2.68061   2.68192   2.70304
 Alpha virt. eigenvalues --    2.70549   2.75683   2.80197   2.92788   2.96733
 Alpha virt. eigenvalues --    2.97440   3.01194   3.04523   3.11047   3.13930
 Alpha virt. eigenvalues --    3.20719   3.25171   3.31735   3.39927   3.58103
 Alpha virt. eigenvalues --    3.82847   4.43291   4.56748   4.57250   4.62470
 Alpha virt. eigenvalues --    4.73287   4.78962   4.88692   4.97460   5.24178
          Condensed to atoms (all electrons):
               1          2          3          4          5          6
     1  C    5.150739   0.331063  -0.043599  -0.043604  -0.064334  -0.002506
     2  C    0.331063   5.052388   0.406708   0.406719   0.332396  -0.045849
     3  H   -0.043599   0.406708   0.542484  -0.029168  -0.046177  -0.002669
     4  H   -0.043604   0.406719  -0.029168   0.542487  -0.046185   0.002739
     5  C   -0.064334   0.332396  -0.046177  -0.046185   4.951078   0.563467
     6  C   -0.002506  -0.045849  -0.002669   0.002739   0.563467   5.001174
     7  H    0.000240  -0.002211   0.002024  -0.000012  -0.033568   0.379043
     8  C   -0.000012   0.002623   0.000190  -0.000040  -0.058159   0.465960
     9  H    0.000002  -0.000106  -0.000005   0.000002   0.002749  -0.034326
    10  C    0.000009   0.000287  -0.000010  -0.000010  -0.021408  -0.030152
    11  O   -0.000000   0.000000  -0.000000  -0.000000  -0.000152   0.005989
    12  C   -0.002509  -0.045856   0.002741  -0.002672   0.563255  -0.052093
    13  H    0.000240  -0.002212  -0.000012   0.002024  -0.033569   0.003380
    14  C   -0.000012   0.002623  -0.000040   0.000190  -0.058152  -0.030712
    15  H    0.000002  -0.000106   0.000002  -0.000005   0.002749  -0.000409
    16  H    0.389927  -0.037666   0.004195  -0.002481  -0.001748   0.000363
    17  H    0.389924  -0.037658  -0.002486   0.004195  -0.001747   0.001714
    18  H    0.383096  -0.035975  -0.001917  -0.001922   0.006051  -0.000022
               7          8          9         10         11         12
     1  C    0.000240  -0.000012   0.000002   0.000009  -0.000000  -0.002509
     2  C   -0.002211   0.002623  -0.000106   0.000287   0.000000  -0.045856
     3  H    0.002024   0.000190  -0.000005  -0.000010  -0.000000   0.002741
     4  H   -0.000012  -0.000040   0.000002  -0.000010  -0.000000  -0.002672
     5  C   -0.033568  -0.058159   0.002749  -0.021408  -0.000152   0.563255
     6  C    0.379043   0.465960  -0.034326  -0.030152   0.005989  -0.052093
     7  H    0.473080  -0.026712  -0.002363   0.001156  -0.000048   0.003380
     8  C   -0.026712   5.280282   0.378213   0.515540  -0.076262  -0.030701
     9  H   -0.002363   0.378213   0.505036  -0.034383   0.001901  -0.000409
    10  C    0.001156   0.515540  -0.034383   4.206675   0.416469  -0.030168
    11  O   -0.000048  -0.076262   0.001901   0.416469   8.711224   0.005993
    12  C    0.003380  -0.030701  -0.000409  -0.030168   0.005993   5.001209
    13  H   -0.000139   0.000037   0.000013   0.001157  -0.000048   0.379039
    14  C    0.000037  -0.073576   0.005866   0.515395  -0.076262   0.466110
    15  H    0.000013   0.005866  -0.000109  -0.034380   0.001905  -0.034321
    16  H    0.000003  -0.000010   0.000000  -0.000006   0.000000   0.001715
    17  H    0.000217  -0.000041   0.000002  -0.000006   0.000000   0.000363
    18  H   -0.000010  -0.000001  -0.000000  -0.000000   0.000000  -0.000022
              13         14         15         16         17         18
     1  C    0.000240  -0.000012   0.000002   0.389927   0.389924   0.383096
     2  C   -0.002212   0.002623  -0.000106  -0.037666  -0.037658  -0.035975
     3  H   -0.000012  -0.000040   0.000002   0.004195  -0.002486  -0.001917
     4  H    0.002024   0.000190  -0.000005  -0.002481   0.004195  -0.001922
     5  C   -0.033569  -0.058152   0.002749  -0.001748  -0.001747   0.006051
     6  C    0.003380  -0.030712  -0.000409   0.000363   0.001714  -0.000022
     7  H   -0.000139   0.000037   0.000013   0.000003   0.000217  -0.000010
     8  C    0.000037  -0.073576   0.005866  -0.000010  -0.000041  -0.000001
     9  H    0.000013   0.005866  -0.000109   0.000000   0.000002  -0.000000
    10  C    0.001157   0.515395  -0.034380  -0.000006  -0.000006  -0.000000
    11  O   -0.000048  -0.076262   0.001905   0.000000   0.000000   0.000000
    12  C    0.379039   0.466110  -0.034321   0.001715   0.000363  -0.000022
    13  H    0.473066  -0.026707  -0.002364   0.000217   0.000003  -0.000010
    14  C   -0.026707   5.280148   0.378205  -0.000041  -0.000010  -0.000001
    15  H   -0.002364   0.378205   0.505005   0.000002   0.000000  -0.000000
    16  H    0.000217  -0.000041   0.000002   0.539359  -0.028112  -0.026975
    17  H    0.000003  -0.000010   0.000000  -0.028112   0.539358  -0.026974
    18  H   -0.000010  -0.000001  -0.000000  -0.026975  -0.026974   0.544652
 Mulliken charges:
               1
     1  C   -0.488667
     2  C   -0.327168
     3  H    0.167740
     4  H    0.167743
     5  C   -0.056546
     6  C   -0.225090
     7  H    0.205871
     8  C   -0.383196
     9  H    0.177919
    10  C    0.493836
    11  O   -0.990709
    12  C   -0.225052
    13  H    0.205886
    14  C   -0.383062
    15  H    0.177947
    16  H    0.161259
    17  H    0.161258
    18  H    0.160032
 Sum of Mulliken charges =  -1.00000
 Mulliken charges with hydrogens summed into heavy atoms:
               1
     1  C   -0.006118
     2  C    0.008315
     5  C   -0.056546
     6  C   -0.019220
     8  C   -0.205277
    10  C    0.493836
    11  O   -0.990709
    12  C   -0.019166
    14  C   -0.205115
 Electronic spatial extent (au):  <R**2>=           1406.7376
 Charge=             -1.0000 electrons
 Dipole moment (field-independent basis, Debye):
    X=            -12.9830    Y=              0.0004    Z=             -1.0931  Tot=             13.0289
 Quadrupole moment (field-independent basis, Debye-Ang):
   XX=            -97.7373   YY=            -53.3862   ZZ=            -59.9996
   XY=             -0.0011   XZ=             -2.7864   YZ=             -0.0005
 Traceless Quadrupole moment (field-independent basis, Debye-Ang):
   XX=            -27.3630   YY=             16.9882   ZZ=             10.3748
   XY=             -0.0011   XZ=             -2.7864   YZ=             -0.0005
 Octapole moment (field-independent basis, Debye-Ang**2):
  XXX=           -143.3371  YYY=              0.0009  ZZZ=              1.8319  XYY=             -1.6715
  XXY=             -0.0034  XXZ=            -15.2746  XZZ=             -1.9964  YZZ=              0.0015
  YYZ=             -0.4960  XYZ=             -0.0002
 Hexadecapole moment (field-independent basis, Debye-Ang**3):
 XXXX=          -1942.7824 YYYY=           -305.7689 ZZZZ=           -135.2327 XXXY=             -0.0216
 XXXZ=            -33.6021 YYYX=              0.0056 YYYZ=             -0.0016 ZZZX=              2.6739
 ZZZY=              0.0002 XXYY=           -290.6323 XXZZ=           -275.7063 YYZZ=            -81.3733
 XXYZ=             -0.0047 YYXZ=              3.1445 ZZXY=              0.0018
 N-N= 4.067854858128D+02 E-N=-1.721688809401D+03  KE= 3.827972401071D+02
 1\1\NSC-N1272\FOpt\RHF\6-31G(d)\C8H9O1(1-)\X_GABOA\12-Dec-2022\0\\#HF/
 6-31G* scrf=smd opt\\remark line goes here\\-1,1\C,-28.6410169461,-6.8
 660178421,-22.1967622488\C,-27.5764082658,-7.9420615471,-22.4352866231
 \H,-27.324114018,-8.401319726,-21.4830118147\H,-28.0058527463,-8.72830
 10875,-23.0507560876\C,-26.3177307055,-7.4143521657,-23.0927395446\C,-
 25.2496464429,-6.9216795162,-22.3454963958\H,-25.309145166,-6.94277109
 39,-21.2683988307\C,-24.1089848535,-6.4086865573,-22.9364486915\H,-23.
 3040437676,-6.0415088977,-22.3202686705\C,-23.9528813959,-6.3505641039
 ,-24.3434257848\O,-22.8947203465,-5.8749277544,-24.9031635279\C,-26.17
 75148101,-7.3666415537,-24.4785568535\H,-26.9758963743,-7.7420192273,-
 25.0996831126\C,-25.045663243,-6.8578450454,-25.0893341808\H,-24.97662
 86018,-6.8435897776,-26.1651845636\H,-28.9479594946,-6.4082920981,-23.
 1329935088\H,-28.2607821975,-6.0789198351,-21.5516583312\H,-29.5250106
 244,-7.2875021712,-21.7248312296\\Version=ES64L-G09RevE.01\State=1-A\H
 F=-383.1446078\RMSD=6.138e-09\RMSF=2.468e-05\Dipole=-4.3495766,-1.5617
 665,2.2176035\Quadrupole=-12.0035311,5.5711675,6.4323635,-6.7717691,12
 .1286954,4.4186102\PG=C01 [X(C8H9O1)]\\@


 SIGN SEEN IN A RESTAURANT-
 WE RESERVE THE RIGHT TO SERVE REFUSE TO ANYONE.
 Job cpu time:       0 days  0 hours 13 minutes 56.5 seconds.
 File lengths (MBytes):  RWF=     83 Int=      0 D2E=      0 Chk=     12 Scr=      1
 Normal termination of Gaussian 09 at Mon Dec 12 17:43:58 2022.
