 Entering Gaussian System, Link 0=/software/sse/easybuild/prefix/software/Gaussian/09.E.01-avx-nsc1-bdist/g09/g09.orig
 Input=tyr-_gesp.wrap
 Output=tyr-_gesp.log
 Initial command:
 /software/sse/easybuild/prefix/software/Gaussian/09.E.01-avx-nsc1-bdist/g09/l1.exe "/scratch/local/Gau-198488.inp" -scrdir="/scratch/local/"
 Entering Link 1 = /software/sse/easybuild/prefix/software/Gaussian/09.E.01-avx-nsc1-bdist/g09/l1.exe PID=    198489.
  
 Copyright (c) 1988,1990,1992,1993,1995,1998,2003,2009,2015,
            Gaussian, Inc.  All Rights Reserved.
  
 This is part of the Gaussian(R) 09 program.  It is based on
 the Gaussian(R) 03 system (copyright 2003, Gaussian, Inc.),
 the Gaussian(R) 98 system (copyright 1998, Gaussian, Inc.),
 the Gaussian(R) 94 system (copyright 1995, Gaussian, Inc.),
 the Gaussian 92(TM) system (copyright 1992, Gaussian, Inc.),
 the Gaussian 90(TM) system (copyright 1990, Gaussian, Inc.),
 the Gaussian 88(TM) system (copyright 1988, Gaussian, Inc.),
 the Gaussian 86(TM) system (copyright 1986, Carnegie Mellon
 University), and the Gaussian 82(TM) system (copyright 1983,
 Carnegie Mellon University). Gaussian is a federally registered
 trademark of Gaussian, Inc.
  
 This software contains proprietary and confidential information,
 including trade secrets, belonging to Gaussian, Inc.
  
 This software is provided under written license and may be
 used, copied, transmitted, or stored only in accord with that
 written license.
  
 The following legend is applicable only to US Government
 contracts under FAR:
  
                    RESTRICTED RIGHTS LEGEND
  
 Use, reproduction and disclosure by the US Government is
 subject to restrictions as set forth in subparagraphs (a)
 and (c) of the Commercial Computer Software - Restricted
 Rights clause in FAR 52.227-19.
  
 Gaussian, Inc.
 340 Quinnipiac St., Bldg. 40, Wallingford CT 06492
  
  
 ---------------------------------------------------------------
 Warning -- This program may not be used in any manner that
 competes with the business of Gaussian, Inc. or will provide
 assistance to any competitor of Gaussian, Inc.  The licensee
 of this program is prohibited from giving any competitor of
 Gaussian, Inc. access to this program.  By using this program,
 the user acknowledges that Gaussian, Inc. is engaged in the
 business of creating and licensing software in the field of
 computational chemistry and represents and warrants to the
 licensee that it is not a competitor of Gaussian, Inc. and that
 it will not use this program in any manner prohibited above.
 ---------------------------------------------------------------
  

 Cite this work as:
 Gaussian 09, Revision E.01,
 M. J. Frisch, G. W. Trucks, H. B. Schlegel, G. E. Scuseria, 
 M. A. Robb, J. R. Cheeseman, G. Scalmani, V. Barone, B. Mennucci, 
 G. A. Petersson, H. Nakatsuji, M. Caricato, X. Li, H. P. Hratchian, 
 A. F. Izmaylov, J. Bloino, G. Zheng, J. L. Sonnenberg, M. Hada, 
 M. Ehara, K. Toyota, R. Fukuda, J. Hasegawa, M. Ishida, T. Nakajima, 
 Y. Honda, O. Kitao, H. Nakai, T. Vreven, J. A. Montgomery, Jr., 
 J. E. Peralta, F. Ogliaro, M. Bearpark, J. J. Heyd, E. Brothers, 
 K. N. Kudin, V. N. Staroverov, T. Keith, R. Kobayashi, J. Normand, 
 K. Raghavachari, A. Rendell, J. C. Burant, S. S. Iyengar, J. Tomasi, 
 M. Cossi, N. Rega, J. M. Millam, M. Klene, J. E. Knox, J. B. Cross, 
 V. Bakken, C. Adamo, J. Jaramillo, R. Gomperts, R. E. Stratmann, 
 O. Yazyev, A. J. Austin, R. Cammi, C. Pomelli, J. W. Ochterski, 
 R. L. Martin, K. Morokuma, V. G. Zakrzewski, G. A. Voth, 
 P. Salvador, J. J. Dannenberg, S. Dapprich, A. D. Daniels, 
 O. Farkas, J. B. Foresman, J. V. Ortiz, J. Cioslowski, 
 and D. J. Fox, Gaussian, Inc., Wallingford CT, 2013.
 
 ******************************************
 Gaussian 09:  ES64L-G09RevE.01 30-Nov-2015
                12-Dec-2022 
 ******************************************
 %chk=tyr-_gesp
 ----------------------------------------------------------------------
 #HF/6-31G* scrf=smd SCF=tight Test Pop=MK iop(6/33=2) iop(6/42=6) # io
 p(6/50=1)
 ----------------------------------------------------------------------
 1/38=1/1;
 2/12=2,17=6,18=5,40=1/2;
 3/5=1,6=6,7=1,11=9,16=1,25=1,30=1,70=32201,72=1/1,2,3;
 4//1;
 5/5=2,32=2,38=5/2;
 6/7=2,8=2,9=2,10=2,15=8,20=1,28=1,33=2,42=6,50=1/1,2;
 99/5=1,9=1/99;
 -----------------
 calc RESP charges
 -----------------
 Symbolic Z-matrix:
 Charge = -1 Multiplicity = 1
 C                    -3.14971   0.0001    0.77354 
 C                    -2.35814  -0.00004  -0.53855 
 H                    -2.6481   -0.8703   -1.12161 
 H                    -2.6479    0.87025  -1.12168 
 C                    -0.85623  -0.00016  -0.34047 
 C                    -0.12992  -1.18419  -0.22892 
 H                    -0.6475   -2.12703  -0.31429 
 C                     1.23693  -1.1952   -0.01655 
 H                     1.76068  -2.13452   0.05954 
 C                     1.98852  -0.00006   0.10199 
 O                     3.26139   0.00016   0.29963 
 C                    -0.12993   1.18411  -0.229 
 H                    -0.64767   2.12686  -0.31441 
 C                     1.23674   1.1952   -0.01664 
 H                     1.76059   2.13446   0.0594 
 H                    -2.91481   0.87761   1.3694 
 H                    -2.91552  -0.87776   1.36918 
 H                    -4.22036   0.00056   0.58502 
 
                          Input orientation:                          
 ---------------------------------------------------------------------
 Center     Atomic      Atomic             Coordinates (Angstroms)
 Number     Number       Type             X           Y           Z
 ---------------------------------------------------------------------
      1          6           0       -3.149714    0.000100    0.773539
      2          6           0       -2.358144   -0.000038   -0.538548
      3          1           0       -2.648097   -0.870302   -1.121614
      4          1           0       -2.647899    0.870246   -1.121682
      5          6           0       -0.856226   -0.000156   -0.340471
      6          6           0       -0.129922   -1.184192   -0.228920
      7          1           0       -0.647503   -2.127032   -0.314287
      8          6           0        1.236926   -1.195204   -0.016551
      9          1           0        1.760677   -2.134524    0.059542
     10          6           0        1.988524   -0.000056    0.101987
     11          8           0        3.261386    0.000159    0.299631
     12          6           0       -0.129932    1.184114   -0.228999
     13          1           0       -0.647673    2.126860   -0.314413
     14          6           0        1.236739    1.195199   -0.016636
     15          1           0        1.760593    2.134463    0.059399
     16          1           0       -2.914807    0.877613    1.369397
     17          1           0       -2.915519   -0.877756    1.369175
     18          1           0       -4.220356    0.000561    0.585024
 ---------------------------------------------------------------------
                    Distance matrix (angstroms):
                    1          2          3          4          5
     1  C    0.000000
     2  C    1.532369   0.000000
     3  H    2.144953   1.086921   0.000000
     4  H    2.144956   1.086921   1.740548   0.000000
     5  C    2.549727   1.514923   2.139659   2.139622   0.000000
     6  C    3.395087   2.542256   2.690099   3.370155   1.393522
     7  H    3.459641   2.738739   2.496703   3.692851   2.137253
     8  C    4.614716   3.824321   4.052176   4.536437   2.431943
     9  H    5.401699   4.677438   4.736103   5.464382   3.400547
    10  C    5.181937   4.393610   4.873683   4.873521   2.878953
    11  O    6.428592   5.681695   6.140002   6.139775   4.167068
    12  C    3.395004   2.542236   3.370244   2.689898   1.393709
    13  H    3.459329   2.738548   3.692729   2.496331   2.137375
    14  C    4.614500   3.824156   4.536433   4.051806   2.431922
    15  H    5.401538   4.677353   5.464426   4.735821   3.400623
    16  H    1.086396   2.172648   3.054747   2.505348   2.816360
    17  H    1.086398   2.172663   2.505115   3.054750   2.816693
    18  H    1.087112   2.174913   2.478510   2.478269   3.489113
                    6          7          8          9         10
     6  C    0.000000
     7  H    1.078946   0.000000
     8  C    1.383291   2.123210   0.000000
     9  H    2.135581   2.437034   1.078159   0.000000
    10  C    2.449386   3.412616   1.416803   2.147014   0.000000
    11  O    3.630843   4.492355   2.372194   2.620428   1.288115
    12  C    2.368306   3.352438   2.752197   3.830276   2.449422
    13  H    3.352378   4.253892   3.830998   4.909113   3.412725
    14  C    2.752150   3.830951   2.390403   3.371553   1.416999
    15  H    3.830228   4.909064   3.371450   4.268987   2.147077
    16  H    3.815919   4.123512   4.842965   5.713916   5.139969
    17  H    3.226044   3.088467   4.389056   5.016115   5.140599
    18  H    4.335642   4.254491   5.619046   6.372399   6.227641
                   11         12         13         14         15
    11  O    0.000000
    12  C    3.630735   0.000000
    13  H    4.492288   1.078945   0.000000
    14  C    2.372202   1.383116   2.123128   0.000000
    15  H    2.620180   2.135514   2.437117   1.078156   0.000000
    16  H    6.329272   3.225576   3.087998   4.388312   5.015489
    17  H    6.329993   3.816407   4.123750   4.843435   5.714455
    18  H    7.487183   4.335320   4.253728   5.618633   6.371936
                   16         17         18
    16  H    0.000000
    17  H    1.755369   0.000000
    18  H    1.757532   1.757536   0.000000
 Stoichiometry    C8H9O(1-)
 Framework group  C1[X(C8H9O)]
 Deg. of freedom    48
 Full point group                 C1      NOp   1
 Largest Abelian subgroup         C1      NOp   1
 Largest concise Abelian subgroup C1      NOp   1
                         Standard orientation:                         
 ---------------------------------------------------------------------
 Center     Atomic      Atomic             Coordinates (Angstroms)
 Number     Number       Type             X           Y           Z
 ---------------------------------------------------------------------
      1          6           0        3.149714   -0.000100    0.773539
      2          6           0        2.358144    0.000038   -0.538548
      3          1           0        2.648097    0.870302   -1.121614
      4          1           0        2.647899   -0.870246   -1.121682
      5          6           0        0.856226    0.000156   -0.340471
      6          6           0        0.129922    1.184192   -0.228920
      7          1           0        0.647503    2.127032   -0.314287
      8          6           0       -1.236926    1.195204   -0.016551
      9          1           0       -1.760677    2.134524    0.059542
     10          6           0       -1.988524    0.000056    0.101987
     11          8           0       -3.261386   -0.000159    0.299631
     12          6           0        0.129932   -1.184114   -0.228999
     13          1           0        0.647673   -2.126860   -0.314413
     14          6           0       -1.236739   -1.195199   -0.016636
     15          1           0       -1.760593   -2.134463    0.059399
     16          1           0        2.914807   -0.877613    1.369397
     17          1           0        2.915519    0.877756    1.369175
     18          1           0        4.220356   -0.000561    0.585024
 ---------------------------------------------------------------------
 Rotational constants (GHZ):      4.5518183      0.9609244      0.8514663
 Standard basis: 6-31G(d) (6D, 7F)
 There are   153 symmetry adapted cartesian basis functions of A   symmetry.
 There are   153 symmetry adapted basis functions of A   symmetry.
   153 basis functions,   288 primitive gaussians,   153 cartesian basis functions
    33 alpha electrons       33 beta electrons
       nuclear repulsion energy       406.7788310556 Hartrees.
 NAtoms=   18 NActive=   18 NUniq=   18 SFac= 1.00D+00 NAtFMM=   60 NAOKFM=F Big=F
 Integral buffers will be    131072 words long.
 Raffenetti 1 integral format.
 Two-electron integral symmetry is turned on.
 ------------------------------------------------------------------------------
 Polarizable Continuum Model (PCM)
 =================================
 Model                : PCM (using non-symmetric T matrix).
 Atomic radii         : SMD-Coulomb.
 Polarization charges : Total charges.
 Charge compensation  : None.
 Solution method      : On-the-fly selection.
 Cavity type          : VdW (van der Waals Surface) (Alpha=1.000).
 Cavity algorithm     : GePol (No added spheres)
                        Default sphere list used, NSphG=   18.
                        Lebedev-Laikov grids with approx.  5.0 points / Ang**2.
                        Smoothing algorithm: York/Karplus (Gamma=1.0000).
                        Polarization charges: spherical gaussians, with
                                              point-specific exponents (IZeta= 3).
                        Self-potential: point-specific (ISelfS= 7).
                        Self-field    : sphere-specific E.n sum rule (ISelfD= 2).
 Solvent              : Water, Eps=  78.355300 Eps(inf)=   1.777849
 ------------------------------------------------------------------------------
 Spheres list:
 ISph  on   Nord     Re0    Alpha      Xe            Ye            Ze
    1   C      1    1.8500  1.000      3.149714     -0.000100      0.773539
    2   C      2    1.8500  1.000      2.358144      0.000038     -0.538548
    3   H      3    1.2000  1.000      2.648097      0.870302     -1.121614
    4   H      4    1.2000  1.000      2.647899     -0.870246     -1.121682
    5   C      5    1.8500  1.000      0.856226      0.000156     -0.340471
    6   C      6    1.8500  1.000      0.129922      1.184192     -0.228920
    7   H      7    1.2000  1.000      0.647503      2.127032     -0.314287
    8   C      8    1.8500  1.000     -1.236926      1.195204     -0.016551
    9   H      9    1.2000  1.000     -1.760677      2.134524      0.059542
   10   C     10    1.8500  1.000     -1.988524      0.000056      0.101987
   11   O     11    1.5200  1.000     -3.261386     -0.000159      0.299631
   12   C     12    1.8500  1.000      0.129932     -1.184114     -0.228999
   13   H     13    1.2000  1.000      0.647673     -2.126860     -0.314413
   14   C     14    1.8500  1.000     -1.236739     -1.195199     -0.016636
   15   H     15    1.2000  1.000     -1.760593     -2.134463      0.059399
   16   H     16    1.2000  1.000      2.914807     -0.877613      1.369397
   17   H     17    1.2000  1.000      2.915519      0.877756      1.369175
   18   H     18    1.2000  1.000      4.220356     -0.000561      0.585024
 ------------------------------------------------------------------------------
 ------------------------------------------------------------------------------
 Atomic radii for non-electrostatic terms: SMD-CDS.
 ------------------------------------------------------------------------------
 Nuclear repulsion after PCM non-electrostatic terms =      406.7854978908 Hartrees.
 One-electron integrals computed using PRISM.
 NBasis=   153 RedAO= T EigKep=  4.34D-04  NBF=   153
 NBsUse=   153 1.00D-06 EigRej= -1.00D+00 NBFU=   153
 ExpMin= 1.61D-01 ExpMax= 5.48D+03 ExpMxC= 8.25D+02 IAcc=1 IRadAn=         1 AccDes= 0.00D+00
 Harris functional with IExCor=  205 and IRadAn=       1 diagonalized for initial guess.
 HarFok:  IExCor=  205 AccDes= 0.00D+00 IRadAn=         1 IDoV= 1 UseB2=F ITyADJ=14
 ICtDFT=  3500011 ScaDFX=  1.000000  1.000000  1.000000  1.000000
 FoFCou: FMM=F IPFlag=           0 FMFlag=      100000 FMFlg1=           0
         NFxFlg=           0 DoJE=T BraDBF=F KetDBF=T FulRan=T
         wScrn=  0.000000 ICntrl=     500 IOpCl=  0 I1Cent=   200000004 NGrid=           0
         NMat0=    1 NMatS0=      1 NMatT0=    0 NMatD0=    1 NMtDS0=    0 NMtDT0=    0
 Petite list used in FoFCou.
 Keep R1 ints in memory in canonical form, NReq=74752814.
 Requested convergence on RMS density matrix=1.00D-08 within 128 cycles.
 Requested convergence on MAX density matrix=1.00D-06.
 Requested convergence on             energy=1.00D-06.
 No special actions if energy rises.
 Inv3:  Mode=1 IEnd=     6040683.
 Iteration    1 A*A^-1 deviation from unit magnitude is 4.22D-15 for   1412.
 Iteration    1 A*A^-1 deviation from orthogonality  is 3.29D-15 for    836    233.
 Iteration    1 A^-1*A deviation from unit magnitude is 4.33D-15 for   1412.
 Iteration    1 A^-1*A deviation from orthogonality  is 1.35D-12 for   1056   1054.
 Error on total polarization charges =  0.04368
 SCF Done:  E(RHF) =  -383.144607787     A.U. after   14 cycles
            NFock= 14  Conv=0.67D-08     -V/T= 2.0009
 SMD-CDS (non-electrostatic) energy       (kcal/mol) =       4.18
 (included in total energy above)

 **********************************************************************

            Population analysis using the SCF density.

 **********************************************************************

 Orbital symmetries:
 BldTbl:  Degeneracy threshold= 1.00D-02
       Occupied  (A) (A) (A) (A) (A) (A) (A) (A) (A) (A) (A) (A)
                 (A) (A) (A) (A) (A) (A) (A) (A) (A) (A) (A) (A)
                 (A) (A) (A) (A) (A) (A) (A) (A) (A)
       Virtual   (A) (A) (A) (A) (A) (A) (A) (A) (A) (A) (A) (A)
                 (A) (A) (A) (A) (A) (A) (A) (A) (A) (A) (A) (A)
                 (A) (A) (A) (A) (A) (A) (A) (A) (A) (A) (A) (A)
                 (A) (A) (A) (A) (A) (A) (A) (A) (A) (A) (A) (A)
                 (A) (A) (A) (A) (A) (A) (A) (A) (A) (A) (A) (A)
                 (A) (A) (A) (A) (A) (A) (A) (A) (A) (A) (A) (A)
                 (A) (A) (A) (A) (A) (A) (A) (A) (A) (A) (A) (A)
                 (A) (A) (A) (A) (A) (A) (A) (A) (A) (A) (A) (A)
                 (A) (A) (A) (A) (A) (A) (A) (A) (A) (A) (A) (A)
                 (A) (A) (A) (A) (A) (A) (A) (A) (A) (A) (A) (A)
 The electronic state is 1-A.
 Alpha  occ. eigenvalues --  -20.45493 -11.25646 -11.21200 -11.21196 -11.20864
 Alpha  occ. eigenvalues --  -11.20008 -11.19725 -11.18603 -11.18599  -1.27670
 Alpha  occ. eigenvalues --   -1.11747  -1.02720  -0.98657  -0.93953  -0.83325
 Alpha  occ. eigenvalues --   -0.80200  -0.75390  -0.64200  -0.62784  -0.60521
 Alpha  occ. eigenvalues --   -0.57224  -0.56650  -0.55212  -0.53047  -0.51520
 Alpha  occ. eigenvalues --   -0.49883  -0.48725  -0.45882  -0.45676  -0.41841
 Alpha  occ. eigenvalues --   -0.36725  -0.32117  -0.24562
 Alpha virt. eigenvalues --    0.16244   0.19565   0.25500   0.28413   0.29813
 Alpha virt. eigenvalues --    0.31406   0.33220   0.33630   0.35126   0.36062
 Alpha virt. eigenvalues --    0.37852   0.38881   0.42622   0.45374   0.46820
 Alpha virt. eigenvalues --    0.52006   0.54480   0.57130   0.58115   0.72127
 Alpha virt. eigenvalues --    0.72727   0.74015   0.75271   0.76196   0.77654
 Alpha virt. eigenvalues --    0.78653   0.81725   0.84892   0.84921   0.86066
 Alpha virt. eigenvalues --    0.86640   0.91785   0.93464   0.94876   0.95138
 Alpha virt. eigenvalues --    0.95522   1.01441   1.02846   1.06996   1.09912
 Alpha virt. eigenvalues --    1.11121   1.13487   1.13965   1.15667   1.17598
 Alpha virt. eigenvalues --    1.18800   1.19882   1.20927   1.23559   1.24644
 Alpha virt. eigenvalues --    1.26442   1.26508   1.29734   1.33039   1.34204
 Alpha virt. eigenvalues --    1.35267   1.39102   1.43294   1.47802   1.50881
 Alpha virt. eigenvalues --    1.53720   1.55647   1.67701   1.72020   1.74793
 Alpha virt. eigenvalues --    1.74971   1.76918   1.78508   1.82714   1.82796
 Alpha virt. eigenvalues --    1.96911   2.01536   2.04326   2.11394   2.12898
 Alpha virt. eigenvalues --    2.16215   2.16260   2.20306   2.23468   2.27635
 Alpha virt. eigenvalues --    2.30539   2.31718   2.33896   2.35777   2.37784
 Alpha virt. eigenvalues --    2.40224   2.42665   2.47665   2.50835   2.52802
 Alpha virt. eigenvalues --    2.61462   2.61540   2.68061   2.68192   2.70304
 Alpha virt. eigenvalues --    2.70549   2.75683   2.80197   2.92788   2.96733
 Alpha virt. eigenvalues --    2.97440   3.01194   3.04523   3.11047   3.13930
 Alpha virt. eigenvalues --    3.20719   3.25171   3.31735   3.39927   3.58103
 Alpha virt. eigenvalues --    3.82847   4.43291   4.56748   4.57250   4.62470
 Alpha virt. eigenvalues --    4.73287   4.78962   4.88692   4.97460   5.24178
          Condensed to atoms (all electrons):
               1          2          3          4          5          6
     1  C    5.150739   0.331063  -0.043599  -0.043604  -0.064334  -0.002506
     2  C    0.331063   5.052387   0.406708   0.406719   0.332396  -0.045849
     3  H   -0.043599   0.406708   0.542484  -0.029168  -0.046177  -0.002669
     4  H   -0.043604   0.406719  -0.029168   0.542486  -0.046185   0.002739
     5  C   -0.064334   0.332396  -0.046177  -0.046185   4.951078   0.563467
     6  C   -0.002506  -0.045849  -0.002669   0.002739   0.563467   5.001174
     7  H    0.000240  -0.002211   0.002024  -0.000012  -0.033568   0.379043
     8  C   -0.000012   0.002623   0.000190  -0.000040  -0.058159   0.465960
     9  H    0.000002  -0.000106  -0.000005   0.000002   0.002749  -0.034326
    10  C    0.000009   0.000287  -0.000010  -0.000010  -0.021408  -0.030152
    11  O   -0.000000   0.000000  -0.000000  -0.000000  -0.000152   0.005989
    12  C   -0.002509  -0.045856   0.002741  -0.002672   0.563255  -0.052093
    13  H    0.000240  -0.002212  -0.000012   0.002024  -0.033569   0.003380
    14  C   -0.000012   0.002623  -0.000040   0.000190  -0.058152  -0.030712
    15  H    0.000002  -0.000106   0.000002  -0.000005   0.002749  -0.000409
    16  H    0.389927  -0.037666   0.004195  -0.002481  -0.001748   0.000363
    17  H    0.389924  -0.037658  -0.002486   0.004195  -0.001747   0.001714
    18  H    0.383096  -0.035975  -0.001917  -0.001922   0.006051  -0.000022
               7          8          9         10         11         12
     1  C    0.000240  -0.000012   0.000002   0.000009  -0.000000  -0.002509
     2  C   -0.002211   0.002623  -0.000106   0.000287   0.000000  -0.045856
     3  H    0.002024   0.000190  -0.000005  -0.000010  -0.000000   0.002741
     4  H   -0.000012  -0.000040   0.000002  -0.000010  -0.000000  -0.002672
     5  C   -0.033568  -0.058159   0.002749  -0.021408  -0.000152   0.563255
     6  C    0.379043   0.465960  -0.034326  -0.030152   0.005989  -0.052093
     7  H    0.473081  -0.026712  -0.002363   0.001156  -0.000048   0.003380
     8  C   -0.026712   5.280282   0.378213   0.515540  -0.076262  -0.030701
     9  H   -0.002363   0.378213   0.505036  -0.034383   0.001901  -0.000409
    10  C    0.001156   0.515540  -0.034383   4.206675   0.416469  -0.030169
    11  O   -0.000048  -0.076262   0.001901   0.416469   8.711224   0.005993
    12  C    0.003380  -0.030701  -0.000409  -0.030169   0.005993   5.001210
    13  H   -0.000139   0.000037   0.000013   0.001157  -0.000048   0.379038
    14  C    0.000037  -0.073576   0.005866   0.515396  -0.076262   0.466110
    15  H    0.000013   0.005866  -0.000109  -0.034380   0.001905  -0.034321
    16  H    0.000003  -0.000010   0.000000  -0.000006   0.000000   0.001715
    17  H    0.000217  -0.000041   0.000002  -0.000006   0.000000   0.000363
    18  H   -0.000010  -0.000001  -0.000000  -0.000000   0.000000  -0.000022
              13         14         15         16         17         18
     1  C    0.000240  -0.000012   0.000002   0.389927   0.389924   0.383096
     2  C   -0.002212   0.002623  -0.000106  -0.037666  -0.037658  -0.035975
     3  H   -0.000012  -0.000040   0.000002   0.004195  -0.002486  -0.001917
     4  H    0.002024   0.000190  -0.000005  -0.002481   0.004195  -0.001922
     5  C   -0.033569  -0.058152   0.002749  -0.001748  -0.001747   0.006051
     6  C    0.003380  -0.030712  -0.000409   0.000363   0.001714  -0.000022
     7  H   -0.000139   0.000037   0.000013   0.000003   0.000217  -0.000010
     8  C    0.000037  -0.073576   0.005866  -0.000010  -0.000041  -0.000001
     9  H    0.000013   0.005866  -0.000109   0.000000   0.000002  -0.000000
    10  C    0.001157   0.515396  -0.034380  -0.000006  -0.000006  -0.000000
    11  O   -0.000048  -0.076262   0.001905   0.000000   0.000000   0.000000
    12  C    0.379038   0.466110  -0.034321   0.001715   0.000363  -0.000022
    13  H    0.473066  -0.026707  -0.002364   0.000217   0.000003  -0.000010
    14  C   -0.026707   5.280148   0.378205  -0.000041  -0.000010  -0.000001
    15  H   -0.002364   0.378205   0.505005   0.000002   0.000000  -0.000000
    16  H    0.000217  -0.000041   0.000002   0.539359  -0.028112  -0.026976
    17  H    0.000003  -0.000010   0.000000  -0.028112   0.539358  -0.026974
    18  H   -0.000010  -0.000001  -0.000000  -0.026976  -0.026974   0.544651
 Mulliken charges:
               1
     1  C   -0.488667
     2  C   -0.327168
     3  H    0.167740
     4  H    0.167743
     5  C   -0.056546
     6  C   -0.225090
     7  H    0.205871
     8  C   -0.383196
     9  H    0.177919
    10  C    0.493836
    11  O   -0.990709
    12  C   -0.225052
    13  H    0.205885
    14  C   -0.383062
    15  H    0.177947
    16  H    0.161258
    17  H    0.161258
    18  H    0.160032
 Sum of Mulliken charges =  -1.00000
 Mulliken charges with hydrogens summed into heavy atoms:
               1
     1  C   -0.006118
     2  C    0.008315
     5  C   -0.056546
     6  C   -0.019220
     8  C   -0.205277
    10  C    0.493836
    11  O   -0.990709
    12  C   -0.019167
    14  C   -0.205115
 DipInt: DoE/N= T F RetVal/Mat= T F Init=T NMatP=  1 IDeriv=0 Min/MaxMlt=  0  4
 Entering OneElI...
 OneElI was handed   134155216 working-precision words.
 Multipole integrals L=0 to 4 MinM= 0 MaxM= 0.
 Requested accuracy = 0.1000D-12
 ShPair: Thresh= 1.00D-13 NBox=     0 BxSize= 0.00D+00 RnKept= 1.41D+01
         NSMCal=                 1485 NSMKep=                1392
 PrsmSu:  NPrtUS=   1 ThrOK=F IAlg=1 NPAlg=1 LenDen=           0.
 Prism:   IPart=     0 DynPar=F LinDyn=F Incr=          13.
 PRISM was handed   134027674 working-precision words and  1392 shell-pairs
 IPart=  0 NShTot=        1392 NBatch=          44 AvBLen=        31.6
 PrSmSu:  NxtVal=             14.
 Electronic moments (au):
        -66.00000000          5.10791170         -0.00016566         -0.43004048
      -1074.47770512       -236.75707611        -95.50285005         -0.00080463
          2.07168809          0.00037683       -298.21160713         -0.03996427
        -25.30727467        142.01989957          0.11433077       -508.76725758
       -218.35615313          0.00590035         39.98707160          0.01683715
     -35583.98866601      -2506.15171734       -526.92706839         -0.05305976
       -970.83655154          0.04568663         -0.03813553       -184.36327000
          0.01119558      -1820.67219881      -2127.34383764       -300.30760380
          0.13006750          8.15122048          0.01865461
 Electronic spatial extent (au):  <R**2>=           1406.7376
 DipInt: DoE/N= F T RetVal/Mat= T F Init=T NMatP=  1 IDeriv=0 Min/MaxMlt=  0  4
 Nuclear    moments (au):
         65.00000000          0.00000000          0.00000000          0.00000000
       1001.81240684        197.06577751         50.89463427          0.00000000
         -0.00007109          0.00000947        499.59523400          0.03867117
         27.88108950       -139.67149235         -0.10957661        487.30702801
        221.16103077         -0.00797502        -40.68399440         -0.01711811
      30425.90309507       1694.33553942        167.88423982         -0.00419496
       1060.05030410         -0.03083066          0.04243276        177.26409776
         -0.01173499       1049.04379388       1395.34385158         84.26166622
         -0.11748705        -16.49990231         -0.01381564
 Total      moments (au):
         -1.00000000          5.10791170         -0.00016566         -0.43004048
        -72.66529828        -39.69129860        -44.60821578         -0.00080463
          2.07161700          0.00038630        201.38362686         -0.00129310
          2.57381483          2.34840722          0.00475416        -21.46022957
          2.80487765         -0.00207467         -0.69692280         -0.00028097
      -5158.08557093       -811.81617791       -359.04282857         -0.05725472
         89.21375256          0.01485597          0.00429723         -7.09917224
         -0.00053942       -771.62840494       -731.99998605       -216.04593758
          0.01258045         -8.34868182          0.00483898
 Traceless Quadrup. (au):
        -20.34369406         12.63030562          7.71338844         -0.00080463
          2.07161700          0.00038630
 Charge=             -1.0000 electrons
 Dipole moment (field-independent basis, Debye):
    X=             12.9830    Y=             -0.0004    Z=             -1.0931  Tot=             13.0289
 Quadrupole moment (field-independent basis, Debye-Ang):
   XX=            -97.7373   YY=            -53.3862   ZZ=            -59.9996
   XY=             -0.0011   XZ=              2.7864   YZ=              0.0005
 Traceless Quadrupole moment (field-independent basis, Debye-Ang):
   XX=            -27.3630   YY=             16.9882   ZZ=             10.3748
   XY=             -0.0011   XZ=              2.7864   YZ=              0.0005
 Octapole moment (field-independent basis, Debye-Ang**2):
  XXX=            143.3371  YYY=             -0.0009  ZZZ=              1.8319  XYY=              1.6715
  XXY=              0.0034  XXZ=            -15.2746  XZZ=              1.9964  YZZ=             -0.0015
  YYZ=             -0.4960  XYZ=             -0.0002
 Hexadecapole moment (field-independent basis, Debye-Ang**3):
 XXXX=          -1942.7822 YYYY=           -305.7689 ZZZZ=           -135.2327 XXXY=             -0.0216
 XXXZ=             33.6022 YYYX=              0.0056 YYYZ=              0.0016 ZZZX=             -2.6739
 ZZZY=             -0.0002 XXYY=           -290.6322 XXZZ=           -275.7063 YYZZ=            -81.3733
 XXYZ=              0.0047 YYXZ=             -3.1445 ZZXY=              0.0018
 N-N= 4.067854978908D+02 E-N=-1.721688835085D+03  KE= 3.827972410737D+02
 Entering OneElI...
 OneElI was handed   134166394 working-precision words.
 Calculate electrostatic properties
    NBasis =   153  MinDer = 0  MaxDer = 0
    NGrid  =    18  NMatD  =   1
 Requested accuracy = 0.1000D-12
 ShPair: Thresh= 1.00D-13 NBox=     0 BxSize= 0.00D+00 RnKept= 1.41D+01
         NSMCal=                 1485 NSMKep=                1329
 PrsmSu:  NPrtUS=   1 ThrOK=F IAlg=1 NPAlg=1 LenDen=           0.
 Prism:   IPart=     0 DynPar=F LinDyn=F Incr=         239.
 PRISM was handed   134046065 working-precision words and  1329 shell-pairs
 IPart=  0 NShTot=       23922 NBatch=        1329 AvBLen=        18.0
 PrSmSu:  NxtVal=            240.
 --------------------------------------------------------
       Center         ----      EFG at Nuclei      ----
                      3XX-RR        3YY-RR        3ZZ-RR
 --------------------------------------------------------
     1   Atom        0.005642      0.013268     -0.018910
     2   Atom       -0.025770      0.040029     -0.014259
     3   Atom        0.119386     -0.142497      0.023111
     4   Atom        0.119426     -0.142508      0.023082
     5   Atom        0.054675      0.123508     -0.178183
     6   Atom        0.211897      0.160609     -0.372505
     7   Atom        0.043497     -0.211050      0.167552
     8   Atom        0.119397      0.055865     -0.175262
     9   Atom        0.039800     -0.215409      0.175609
    10   Atom        0.158518      0.328925     -0.487443
    11   Atom       -1.435975      1.237586      0.198389
    12   Atom        0.211989      0.160520     -0.372510
    13   Atom        0.043432     -0.210980      0.167548
    14   Atom        0.119658      0.055894     -0.175553
    15   Atom        0.039770     -0.215368      0.175598
    16   Atom        0.137363     -0.150806      0.013444
    17   Atom        0.137498     -0.151048      0.013550
    18   Atom       -0.297151      0.159252      0.137899
 --------------------------------------------------------
                        XY            XZ            YZ
 --------------------------------------------------------
     1   Atom        0.000004     -0.015308      0.000002
     2   Atom        0.000010     -0.005130      0.000003
     3   Atom       -0.097225      0.064803      0.200559
     4   Atom        0.097158      0.064766     -0.200585
     5   Atom       -0.000089     -0.026510      0.000016
     6   Atom       -0.041467     -0.093642      0.000224
     7   Atom       -0.197245      0.021099      0.032895
     8   Atom        0.042986     -0.045917     -0.007605
     9   Atom        0.207246      0.020429     -0.029989
    10   Atom        0.000094     -0.102113      0.000007
    11   Atom       -0.000530      0.262052      0.000107
    12   Atom        0.041412     -0.093652     -0.000191
    13   Atom        0.197285      0.021115     -0.032912
    14   Atom       -0.042929     -0.045999      0.007611
    15   Atom       -0.207276      0.020415      0.029964
    16   Atom       -0.085164      0.052708      0.207718
    17   Atom        0.084946      0.052519     -0.207717
    18   Atom        0.000196      0.079721     -0.000036
 --------------------------------------------------------


 ---------------------------------------------------------------------------------
              Nuclear Quadrupole Coupling Constant in Principal Axis System
 ---------------------------------------------------------------------------------

       Atom             a.u.   MegaHertz   Gauss  10(-4) cm-1        Axes


 ---------------------------------------------------------------------------------

 No NMR shielding tensors so no spin-rotation constants.
 Leave Link  601 at Mon Dec 12 17:57:53 2022, MaxMem=   134217728 cpu:         0.1
 FitSet:  NAtFit=    18 NAtPot=    18 NAtFrz=     0 MDM=    22 TotChg=  -1.00000
 Merz-Kollman atomic radii used.
 Atom Element Radius
    1     6    1.50
    2     6    1.50
    3     1    1.20
    4     1    1.20
    5     6    1.50
    6     6    1.50
    7     1    1.20
    8     6    1.50
    9     1    1.20
   10     6    1.50
   11     8    1.40
   12     6    1.50
   13     1    1.20
   14     6    1.50
   15     1    1.20
   16     1    1.20
   17     1    1.20
   18     1    1.20
 Generate VDW surfaces: Layer= 4 Dens= 6 Start= 1.400 Inc= 0.200

 **********************************************************************

            Electrostatic Properties Using The SCF Density

 **********************************************************************

       Atomic Center    1 is at   3.149714 -0.000100  0.773539
       Atomic Center    2 is at   2.358144  0.000038 -0.538548
       Atomic Center    3 is at   2.648097  0.870302 -1.121614
       Atomic Center    4 is at   2.647899 -0.870246 -1.121682
       Atomic Center    5 is at   0.856226  0.000156 -0.340471
       Atomic Center    6 is at   0.129922  1.184192 -0.228920
       Atomic Center    7 is at   0.647503  2.127032 -0.314287
       Atomic Center    8 is at  -1.236926  1.195204 -0.016551
       Atomic Center    9 is at  -1.760677  2.134524  0.059542
       Atomic Center   10 is at  -1.988524  0.000056  0.101987
       Atomic Center   11 is at  -3.261386 -0.000159  0.299631
       Atomic Center   12 is at   0.129932 -1.184114 -0.228999
       Atomic Center   13 is at   0.647673 -2.126860 -0.314413
       Atomic Center   14 is at  -1.236739 -1.195199 -0.016636
       Atomic Center   15 is at  -1.760593 -2.134463  0.059399
       Atomic Center   16 is at   2.914807 -0.877613  1.369397
       Atomic Center   17 is at   2.915519  0.877756  1.369175
       Atomic Center   18 is at   4.220356 -0.000561  0.585024
      ESP Fit Center   19 is at   3.149714 -0.000100  2.873539
      ESP Fit Center   20 is at   3.559404 -0.000100  2.833188
      ESP Fit Center   21 is at   2.740024 -0.000100  2.833188
      ESP Fit Center   22 is at   3.953349 -0.000100  2.713686
      ESP Fit Center   23 is at   3.845683  0.401718  2.713686
      ESP Fit Center   24 is at   2.346079 -0.000100  2.713686
      ESP Fit Center   25 is at   3.845683 -0.401918  2.713686
      ESP Fit Center   26 is at   4.316412 -0.000100  2.519625
      ESP Fit Center   27 is at   4.237627  0.421360  2.519625
      ESP Fit Center   28 is at   4.237627 -0.421560  2.519625
      ESP Fit Center   29 is at   4.634638 -0.000100  2.258463
      ESP Fit Center   30 is at   4.574489  0.418252  2.258463
      ESP Fit Center   31 is at   4.398912  0.802711  2.258463
      ESP Fit Center   32 is at   1.664790 -0.000100  2.258463
      ESP Fit Center   33 is at   4.398912 -0.802911  2.258463
      ESP Fit Center   34 is at   4.574489 -0.418451  2.258463
      ESP Fit Center   35 is at   1.403628 -0.000100  1.940237
      ESP Fit Center   36 is at   4.316412  1.745986  0.773539
      ESP Fit Center   37 is at   4.316412 -1.746186  0.773539
      ESP Fit Center   38 is at   4.239194  1.747809  0.363849
      ESP Fit Center   39 is at   3.865041  1.931340  0.363849
      ESP Fit Center   40 is at   3.865041 -1.931540  0.363849
      ESP Fit Center   41 is at   4.239194 -1.748009  0.363849
      ESP Fit Center   42 is at   4.058495  1.714043 -0.030096
      ESP Fit Center   43 is at   3.668758  1.869329 -0.030096
      ESP Fit Center   44 is at   3.668758 -1.869529 -0.030096
      ESP Fit Center   45 is at   4.058495 -1.714243 -0.030096
      ESP Fit Center   46 is at   4.141604  1.436901 -0.393158
      ESP Fit Center   47 is at   4.141604 -1.437101 -0.393158
      ESP Fit Center   48 is at   4.298291  0.000038 -1.342183
      ESP Fit Center   49 is at   4.252932  0.417112 -1.342183
      ESP Fit Center   50 is at   4.252932 -0.417036 -1.342183
      ESP Fit Center   51 is at   4.104230  0.000038 -1.705245
      ESP Fit Center   52 is at   3.843068  0.000038 -2.023472
      ESP Fit Center   53 is at   3.524842  0.000038 -2.284634
      ESP Fit Center   54 is at   1.366198  0.614225 -2.284634
      ESP Fit Center   55 is at   1.366198 -0.614149 -2.284634
      ESP Fit Center   56 is at   3.161779  0.000038 -2.478695
      ESP Fit Center   57 is at   1.662176  0.401856 -2.478695
      ESP Fit Center   58 is at   1.554509  0.000038 -2.478695
      ESP Fit Center   59 is at   1.662176 -0.401780 -2.478695
      ESP Fit Center   60 is at   2.767834  0.000038 -2.598197
      ESP Fit Center   61 is at   1.948454  0.000038 -2.598197
      ESP Fit Center   62 is at   2.358144  0.000038 -2.638548
      ESP Fit Center   63 is at   2.757706  2.053174  0.066325
      ESP Fit Center   64 is at   2.323002  2.012893  0.066325
      ESP Fit Center   65 is at   3.850211  1.689889 -0.281614
      ESP Fit Center   66 is at   3.555227  2.007806 -0.281614
      ESP Fit Center   67 is at   3.179640  2.224651 -0.281614
      ESP Fit Center   68 is at   2.756824  2.321156 -0.281614
      ESP Fit Center   69 is at   2.324346  2.288747 -0.281614
      ESP Fit Center   70 is at   4.215558  1.290302 -0.686798
      ESP Fit Center   71 is at   4.053445  1.681680 -0.686798
      ESP Fit Center   72 is at   3.795558  2.017763 -0.686798
      ESP Fit Center   73 is at   3.459475  2.275649 -0.686798
      ESP Fit Center   74 is at   3.068097  2.437763 -0.686798
      ESP Fit Center   75 is at   2.648097  2.493057 -0.686798
      ESP Fit Center   76 is at   4.328097  0.870302 -1.121614
      ESP Fit Center   77 is at   4.275317  1.288101 -1.121614
      ESP Fit Center   78 is at   4.120292  1.679648 -1.121614
      ESP Fit Center   79 is at   3.872764  2.020341 -1.121614
      ESP Fit Center   80 is at   3.548286  2.288773 -1.121614
      ESP Fit Center   81 is at   3.167246  2.468077 -1.121614
      ESP Fit Center   82 is at   2.753585  2.546987 -1.121614
      ESP Fit Center   83 is at   2.333297  2.520545 -1.121614
      ESP Fit Center   84 is at   4.270853  0.870302 -1.556430
      ESP Fit Center   85 is at   4.215558  1.290302 -1.556430
      ESP Fit Center   86 is at   4.053445  1.681680 -1.556430
      ESP Fit Center   87 is at   3.795558  2.017763 -1.556430
      ESP Fit Center   88 is at   3.459475  2.275649 -1.556430
      ESP Fit Center   89 is at   3.068097  2.437763 -1.556430
      ESP Fit Center   90 is at   2.648097  2.493057 -1.556430
      ESP Fit Center   91 is at   2.228097  2.437763 -1.556430
      ESP Fit Center   92 is at   1.836719  2.275649 -1.556430
      ESP Fit Center   93 is at   4.215558  0.450302 -1.556430
      ESP Fit Center   94 is at   4.103020  0.870302 -1.961614
      ESP Fit Center   95 is at   4.038382  1.299148 -1.961614
      ESP Fit Center   96 is at   3.850211  1.689889 -1.961614
      ESP Fit Center   97 is at   3.555227  2.007806 -1.961614
      ESP Fit Center   98 is at   3.179640  2.224651 -1.961614
      ESP Fit Center   99 is at   2.756824  2.321156 -1.961614
      ESP Fit Center  100 is at   2.324346  2.288747 -1.961614
      ESP Fit Center  101 is at   1.920636  2.130302 -1.961614
      ESP Fit Center  102 is at   1.581563  1.859901 -1.961614
      ESP Fit Center  103 is at   1.337257  1.501569 -1.961614
      ESP Fit Center  104 is at   4.038382  0.441456 -1.961614
      ESP Fit Center  105 is at   3.836037  0.870302 -2.309553
      ESP Fit Center  106 is at   3.755818  1.299435 -2.309553
      ESP Fit Center  107 is at   3.525995  1.670612 -2.309553
      ESP Fit Center  108 is at   3.177607  1.933702 -2.309553
      ESP Fit Center  109 is at   2.757706  2.053174 -2.309553
      ESP Fit Center  110 is at   2.323002  2.012893 -2.309553
      ESP Fit Center  111 is at   1.932204  1.818298 -2.309553
      ESP Fit Center  112 is at   1.638091  1.495672 -2.309553
      ESP Fit Center  113 is at   1.480385  1.088585 -2.309553
      ESP Fit Center  114 is at   3.525995  0.069992 -2.309553
      ESP Fit Center  115 is at   3.755818  0.441169 -2.309553
      ESP Fit Center  116 is at   3.488097  0.870302 -2.576537
      ESP Fit Center  117 is at   3.375558  1.290302 -2.576537
      ESP Fit Center  118 is at   3.068097  1.597763 -2.576537
      ESP Fit Center  119 is at   2.648097  1.710302 -2.576537
      ESP Fit Center  120 is at   2.228097  1.597763 -2.576537
      ESP Fit Center  121 is at   1.920636  1.290302 -2.576537
      ESP Fit Center  122 is at   1.808097  0.870302 -2.576537
      ESP Fit Center  123 is at   1.920636  0.450302 -2.576537
      ESP Fit Center  124 is at   3.068097  0.142841 -2.576537
      ESP Fit Center  125 is at   3.375558  0.450302 -2.576537
      ESP Fit Center  126 is at   3.082913  0.870302 -2.744369
      ESP Fit Center  127 is at   2.865505  1.246864 -2.744369
      ESP Fit Center  128 is at   2.430689  1.246864 -2.744369
      ESP Fit Center  129 is at   2.213281  0.870302 -2.744369
      ESP Fit Center  130 is at   2.430689  0.493740 -2.744369
      ESP Fit Center  131 is at   2.865505  0.493740 -2.744369
      ESP Fit Center  132 is at   2.648097  0.870302 -2.801614
      ESP Fit Center  133 is at   2.322804 -2.012837  0.066257
      ESP Fit Center  134 is at   2.757508 -2.053118  0.066257
      ESP Fit Center  135 is at   2.324148 -2.288691 -0.281682
      ESP Fit Center  136 is at   2.756626 -2.321100 -0.281682
      ESP Fit Center  137 is at   3.179442 -2.224595 -0.281682
      ESP Fit Center  138 is at   3.555029 -2.007750 -0.281682
      ESP Fit Center  139 is at   3.850013 -1.689833 -0.281682
      ESP Fit Center  140 is at   2.647899 -2.493001 -0.686866
      ESP Fit Center  141 is at   3.067899 -2.437707 -0.686866
      ESP Fit Center  142 is at   3.459277 -2.275593 -0.686866
      ESP Fit Center  143 is at   3.795360 -2.017707 -0.686866
      ESP Fit Center  144 is at   4.053247 -1.681624 -0.686866
      ESP Fit Center  145 is at   4.215360 -1.290246 -0.686866
      ESP Fit Center  146 is at   4.327899 -0.870246 -1.121682
      ESP Fit Center  147 is at   2.333099 -2.520489 -1.121682
      ESP Fit Center  148 is at   2.753387 -2.546931 -1.121682
      ESP Fit Center  149 is at   3.167048 -2.468021 -1.121682
      ESP Fit Center  150 is at   3.548088 -2.288717 -1.121682
      ESP Fit Center  151 is at   3.872566 -2.020285 -1.121682
      ESP Fit Center  152 is at   4.120094 -1.679592 -1.121682
      ESP Fit Center  153 is at   4.275119 -1.288045 -1.121682
      ESP Fit Center  154 is at   4.270655 -0.870246 -1.556498
      ESP Fit Center  155 is at   4.215360 -0.450246 -1.556498
      ESP Fit Center  156 is at   1.836521 -2.275593 -1.556498
      ESP Fit Center  157 is at   2.227899 -2.437707 -1.556498
      ESP Fit Center  158 is at   2.647899 -2.493001 -1.556498
      ESP Fit Center  159 is at   3.067899 -2.437707 -1.556498
      ESP Fit Center  160 is at   3.459277 -2.275593 -1.556498
      ESP Fit Center  161 is at   3.795360 -2.017707 -1.556498
      ESP Fit Center  162 is at   4.053247 -1.681624 -1.556498
      ESP Fit Center  163 is at   4.215360 -1.290246 -1.556498
      ESP Fit Center  164 is at   4.102822 -0.870246 -1.961682
      ESP Fit Center  165 is at   4.038184 -0.441400 -1.961682
      ESP Fit Center  166 is at   1.337059 -1.501513 -1.961682
      ESP Fit Center  167 is at   1.581365 -1.859845 -1.961682
      ESP Fit Center  168 is at   1.920438 -2.130246 -1.961682
      ESP Fit Center  169 is at   2.324148 -2.288691 -1.961682
      ESP Fit Center  170 is at   2.756626 -2.321100 -1.961682
      ESP Fit Center  171 is at   3.179442 -2.224595 -1.961682
      ESP Fit Center  172 is at   3.555029 -2.007750 -1.961682
      ESP Fit Center  173 is at   3.850013 -1.689833 -1.961682
      ESP Fit Center  174 is at   4.038184 -1.299092 -1.961682
      ESP Fit Center  175 is at   3.835839 -0.870246 -2.309621
      ESP Fit Center  176 is at   3.755620 -0.441113 -2.309621
      ESP Fit Center  177 is at   3.525797 -0.069936 -2.309621
      ESP Fit Center  178 is at   1.480187 -1.088529 -2.309621
      ESP Fit Center  179 is at   1.637893 -1.495615 -2.309621
      ESP Fit Center  180 is at   1.932006 -1.818242 -2.309621
      ESP Fit Center  181 is at   2.322804 -2.012837 -2.309621
      ESP Fit Center  182 is at   2.757508 -2.053118 -2.309621
      ESP Fit Center  183 is at   3.177409 -1.933646 -2.309621
      ESP Fit Center  184 is at   3.525797 -1.670556 -2.309621
      ESP Fit Center  185 is at   3.755620 -1.299379 -2.309621
      ESP Fit Center  186 is at   3.487899 -0.870246 -2.576605
      ESP Fit Center  187 is at   3.375360 -0.450246 -2.576605
      ESP Fit Center  188 is at   3.067899 -0.142785 -2.576605
      ESP Fit Center  189 is at   1.920438 -0.450246 -2.576605
      ESP Fit Center  190 is at   1.807899 -0.870246 -2.576605
      ESP Fit Center  191 is at   1.920438 -1.290246 -2.576605
      ESP Fit Center  192 is at   2.227899 -1.597707 -2.576605
      ESP Fit Center  193 is at   2.647899 -1.710246 -2.576605
      ESP Fit Center  194 is at   3.067899 -1.597707 -2.576605
      ESP Fit Center  195 is at   3.375360 -1.290246 -2.576605
      ESP Fit Center  196 is at   3.082715 -0.870246 -2.744437
      ESP Fit Center  197 is at   2.865307 -0.493684 -2.744437
      ESP Fit Center  198 is at   2.430491 -0.493684 -2.744437
      ESP Fit Center  199 is at   2.213083 -0.870246 -2.744437
      ESP Fit Center  200 is at   2.430491 -1.246808 -2.744437
      ESP Fit Center  201 is at   2.865307 -1.246808 -2.744437
      ESP Fit Center  202 is at   2.647899 -0.870246 -2.801682
      ESP Fit Center  203 is at   0.856226  0.000156  1.759529
      ESP Fit Center  204 is at   1.265916  0.000156  1.719178
      ESP Fit Center  205 is at   1.061071  0.354958  1.719178
      ESP Fit Center  206 is at   0.651381  0.354958  1.719178
      ESP Fit Center  207 is at   0.446536  0.000156  1.719178
      ESP Fit Center  208 is at   0.651381 -0.354646  1.719178
      ESP Fit Center  209 is at   1.061071 -0.354646  1.719178
      ESP Fit Center  210 is at   1.258044  0.696125  1.599676
      ESP Fit Center  211 is at   0.052591  0.000156  1.599676
      ESP Fit Center  212 is at   1.258044 -0.695812  1.599676
      ESP Fit Center  213 is at  -0.628698  0.000156 -1.825395
      ESP Fit Center  214 is at  -0.290606  0.214536 -2.086557
      ESP Fit Center  215 is at  -0.290606 -0.214224 -2.086557
      ESP Fit Center  216 is at   1.258044  0.696125 -2.280618
      ESP Fit Center  217 is at   0.856226  0.803791 -2.280618
      ESP Fit Center  218 is at   0.454409  0.696125 -2.280618
      ESP Fit Center  219 is at   0.160258  0.401974 -2.280618
      ESP Fit Center  220 is at   0.052591  0.000156 -2.280618
      ESP Fit Center  221 is at   0.160258 -0.401662 -2.280618
      ESP Fit Center  222 is at   0.454409 -0.695812 -2.280618
      ESP Fit Center  223 is at   0.856226 -0.803479 -2.280618
      ESP Fit Center  224 is at   1.258044 -0.695812 -2.280618
      ESP Fit Center  225 is at   1.265916  0.000156 -2.400120
      ESP Fit Center  226 is at   1.061071  0.354958 -2.400120
      ESP Fit Center  227 is at   0.651381  0.354958 -2.400120
      ESP Fit Center  228 is at   0.446536  0.000156 -2.400120
      ESP Fit Center  229 is at   0.651381 -0.354646 -2.400120
      ESP Fit Center  230 is at   1.061071 -0.354646 -2.400120
      ESP Fit Center  231 is at   0.856226  0.000156 -2.440471
      ESP Fit Center  232 is at   0.129922  1.184192  1.871080
      ESP Fit Center  233 is at   0.539612  1.184192  1.830729
      ESP Fit Center  234 is at   0.334767  1.538994  1.830729
      ESP Fit Center  235 is at  -0.074923  1.538994  1.830729
      ESP Fit Center  236 is at  -0.074923  0.829390  1.830729
      ESP Fit Center  237 is at   0.334767  0.829390  1.830729
      ESP Fit Center  238 is at   0.933557  1.184192  1.711227
      ESP Fit Center  239 is at   0.825891  1.586010  1.711227
      ESP Fit Center  240 is at   0.531740  1.880161  1.711227
      ESP Fit Center  241 is at   0.129922  1.987827  1.711227
      ESP Fit Center  242 is at  -0.271895  0.488224  1.711227
      ESP Fit Center  243 is at   0.129922  0.380557  1.711227
      ESP Fit Center  244 is at   0.531740  0.488224  1.711227
      ESP Fit Center  245 is at   0.825891  0.782374  1.711227
      ESP Fit Center  246 is at   1.217835  1.605652  1.517166
      ESP Fit Center  247 is at   0.992122  1.970191  1.517166
      ESP Fit Center  248 is at   0.649964  2.228577  1.517166
      ESP Fit Center  249 is at   0.237571  2.345913  1.517166
      ESP Fit Center  250 is at  -0.189360  2.306352  1.517166
      ESP Fit Center  251 is at  -0.189360  0.062032  1.517166
      ESP Fit Center  252 is at   1.379120  1.987003  1.256004
      ESP Fit Center  253 is at   0.341249  2.654002  1.256004
      ESP Fit Center  254 is at  -0.081405  2.654002  1.256004
      ESP Fit Center  255 is at  -0.489249  2.816811 -1.395617
      ESP Fit Center  256 is at  -0.486938  2.534927 -1.713844
      ESP Fit Center  257 is at   1.217835  1.605652 -1.975006
      ESP Fit Center  258 is at   0.992122  1.970191 -1.975006
      ESP Fit Center  259 is at   0.237571  2.345913 -1.975006
      ESP Fit Center  260 is at  -0.189360  2.306352 -1.975006
      ESP Fit Center  261 is at  -0.573170  2.115237 -1.975006
      ESP Fit Center  262 is at  -0.573170  0.253147 -1.975006
      ESP Fit Center  263 is at   0.933557  1.184192 -2.169067
      ESP Fit Center  264 is at   0.825891  1.586010 -2.169067
      ESP Fit Center  265 is at   0.531740  1.880161 -2.169067
      ESP Fit Center  266 is at   0.129922  1.987827 -2.169067
      ESP Fit Center  267 is at  -0.271895  1.880161 -2.169067
      ESP Fit Center  268 is at  -0.566046  1.586010 -2.169067
      ESP Fit Center  269 is at  -0.673713  1.184192 -2.169067
      ESP Fit Center  270 is at  -0.566046  0.782374 -2.169067
      ESP Fit Center  271 is at  -0.271895  0.488224 -2.169067
      ESP Fit Center  272 is at   0.539612  1.184192 -2.288569
      ESP Fit Center  273 is at   0.334767  1.538994 -2.288569
      ESP Fit Center  274 is at  -0.074923  1.538994 -2.288569
      ESP Fit Center  275 is at  -0.279768  1.184192 -2.288569
      ESP Fit Center  276 is at  -0.074923  0.829390 -2.288569
      ESP Fit Center  277 is at   0.334767  0.829390 -2.288569
      ESP Fit Center  278 is at   0.129922  1.184192 -2.328920
      ESP Fit Center  279 is at   0.864911  2.503594  1.308468
      ESP Fit Center  280 is at   1.487503  2.127032  1.140636
      ESP Fit Center  281 is at   1.374964  2.547032  1.140636
      ESP Fit Center  282 is at   1.067503  2.854493  1.140636
      ESP Fit Center  283 is at   0.647503  2.967032  1.140636
      ESP Fit Center  284 is at   0.227503  2.854493  1.140636
      ESP Fit Center  285 is at   1.835443  2.127032  0.873652
      ESP Fit Center  286 is at   1.755224  2.556165  0.873652
      ESP Fit Center  287 is at   1.525401  2.927342  0.873652
      ESP Fit Center  288 is at   1.177013  3.190432  0.873652
      ESP Fit Center  289 is at   0.757112  3.309904  0.873652
      ESP Fit Center  290 is at   0.322408  3.269623  0.873652
      ESP Fit Center  291 is at  -0.068390  3.075028  0.873652
      ESP Fit Center  292 is at   2.102426  2.127032  0.525713
      ESP Fit Center  293 is at   2.037788  2.555878  0.525713
      ESP Fit Center  294 is at   1.849617  2.946619  0.525713
      ESP Fit Center  295 is at   1.554633  3.264536  0.525713
      ESP Fit Center  296 is at   1.179046  3.481381  0.525713
      ESP Fit Center  297 is at   0.756230  3.577886  0.525713
      ESP Fit Center  298 is at   0.323752  3.545477  0.525713
      ESP Fit Center  299 is at  -0.079958  3.387032  0.525713
      ESP Fit Center  300 is at  -0.419031  3.116631  0.525713
      ESP Fit Center  301 is at   2.270259  2.127032  0.120529
      ESP Fit Center  302 is at   2.214964  2.547032  0.120529
      ESP Fit Center  303 is at   2.052851  2.938410  0.120529
      ESP Fit Center  304 is at   1.794964  3.274493  0.120529
      ESP Fit Center  305 is at   1.458881  3.532379  0.120529
      ESP Fit Center  306 is at   1.067503  3.694493  0.120529
      ESP Fit Center  307 is at   0.647503  3.749787  0.120529
      ESP Fit Center  308 is at   0.227503  3.694493  0.120529
      ESP Fit Center  309 is at  -0.163875  3.532379  0.120529
      ESP Fit Center  310 is at  -0.499958  3.274493  0.120529
      ESP Fit Center  311 is at   2.274723  2.544831 -0.314287
      ESP Fit Center  312 is at   2.119698  2.936378 -0.314287
      ESP Fit Center  313 is at   1.872170  3.277071 -0.314287
      ESP Fit Center  314 is at   1.547692  3.545503 -0.314287
      ESP Fit Center  315 is at   1.166652  3.724807 -0.314287
      ESP Fit Center  316 is at   0.752991  3.803717 -0.314287
      ESP Fit Center  317 is at   0.332703  3.777275 -0.314287
      ESP Fit Center  318 is at  -0.067806  3.647141 -0.314287
      ESP Fit Center  319 is at  -0.423369  3.421494 -0.314287
      ESP Fit Center  320 is at   2.214964  2.547032 -0.749103
      ESP Fit Center  321 is at   2.052851  2.938410 -0.749103
      ESP Fit Center  322 is at   1.794964  3.274493 -0.749103
      ESP Fit Center  323 is at   1.458881  3.532379 -0.749103
      ESP Fit Center  324 is at   1.067503  3.694493 -0.749103
      ESP Fit Center  325 is at   0.647503  3.749787 -0.749103
      ESP Fit Center  326 is at   0.227503  3.694493 -0.749103
      ESP Fit Center  327 is at  -0.163875  3.532379 -0.749103
      ESP Fit Center  328 is at  -0.499958  3.274493 -0.749103
      ESP Fit Center  329 is at   2.037788  2.555878 -1.154287
      ESP Fit Center  330 is at   1.849617  2.946619 -1.154287
      ESP Fit Center  331 is at   1.554633  3.264536 -1.154287
      ESP Fit Center  332 is at   1.179046  3.481381 -1.154287
      ESP Fit Center  333 is at   0.756230  3.577886 -1.154287
      ESP Fit Center  334 is at   0.323752  3.545477 -1.154287
      ESP Fit Center  335 is at  -0.079958  3.387032 -1.154287
      ESP Fit Center  336 is at  -0.419031  3.116631 -1.154287
      ESP Fit Center  337 is at   1.755224  2.556165 -1.502226
      ESP Fit Center  338 is at   1.525401  2.927342 -1.502226
      ESP Fit Center  339 is at   1.177013  3.190432 -1.502226
      ESP Fit Center  340 is at   0.757112  3.309904 -1.502226
      ESP Fit Center  341 is at   0.322408  3.269623 -1.502226
      ESP Fit Center  342 is at  -0.068390  3.075028 -1.502226
      ESP Fit Center  343 is at   1.487503  2.127032 -1.769210
      ESP Fit Center  344 is at   1.374964  2.547032 -1.769210
      ESP Fit Center  345 is at   1.067503  2.854493 -1.769210
      ESP Fit Center  346 is at   0.647503  2.967032 -1.769210
      ESP Fit Center  347 is at   0.227503  2.854493 -1.769210
      ESP Fit Center  348 is at   1.082319  2.127032 -1.937042
      ESP Fit Center  349 is at   0.864911  2.503594 -1.937042
      ESP Fit Center  350 is at   0.430095  2.503594 -1.937042
      ESP Fit Center  351 is at  -1.236926  1.195204  2.083449
      ESP Fit Center  352 is at  -0.827236  1.195204  2.043098
      ESP Fit Center  353 is at  -1.032081  1.550006  2.043098
      ESP Fit Center  354 is at  -1.441771  1.550006  2.043098
      ESP Fit Center  355 is at  -1.646616  1.195204  2.043098
      ESP Fit Center  356 is at  -1.441771  0.840402  2.043098
      ESP Fit Center  357 is at  -1.032081  0.840402  2.043098
      ESP Fit Center  358 is at  -0.433291  1.195204  1.923596
      ESP Fit Center  359 is at  -0.540957  1.597022  1.923596
      ESP Fit Center  360 is at  -0.835108  1.891173  1.923596
      ESP Fit Center  361 is at  -1.236926  1.998839  1.923596
      ESP Fit Center  362 is at  -1.638743  1.891173  1.923596
      ESP Fit Center  363 is at  -1.932894  1.597022  1.923596
      ESP Fit Center  364 is at  -2.040561  1.195204  1.923596
      ESP Fit Center  365 is at  -0.835108  0.499236  1.923596
      ESP Fit Center  366 is at  -0.540957  0.793386  1.923596
      ESP Fit Center  367 is at  -0.374726  1.981203  1.729535
      ESP Fit Center  368 is at  -0.716884  2.239589  1.729535
      ESP Fit Center  369 is at  -1.129277  2.356925  1.729535
      ESP Fit Center  370 is at  -1.556208  2.317364  1.729535
      ESP Fit Center  371 is at  -2.228872  1.809391  1.729535
      ESP Fit Center  372 is at  -2.383758  1.409584  1.729535
      ESP Fit Center  373 is at  -0.374726  0.409205  1.729535
      ESP Fit Center  374 is at  -0.620066  2.545939  1.468373
      ESP Fit Center  375 is at  -2.661700  1.613556  1.468373
      ESP Fit Center  376 is at  -0.617755  2.827823  1.150147
      ESP Fit Center  377 is at  -2.932274  1.613070 -1.183248
      ESP Fit Center  378 is at  -1.025599  2.665014 -1.501475
      ESP Fit Center  379 is at  -2.486124  1.998015 -1.501475
      ESP Fit Center  380 is at  -2.661700  1.613556 -1.501475
      ESP Fit Center  381 is at  -2.721850  1.195204 -1.501475
      ESP Fit Center  382 is at  -1.129277  2.356925 -1.762637
      ESP Fit Center  383 is at  -1.556208  2.317364 -1.762637
      ESP Fit Center  384 is at  -1.940018  2.126249 -1.762637
      ESP Fit Center  385 is at  -2.228872  1.809391 -1.762637
      ESP Fit Center  386 is at  -2.383758  1.409584 -1.762637
      ESP Fit Center  387 is at  -2.383758  0.980824 -1.762637
      ESP Fit Center  388 is at  -0.835108  1.891173 -1.956698
      ESP Fit Center  389 is at  -1.236926  1.998839 -1.956698
      ESP Fit Center  390 is at  -1.638743  1.891173 -1.956698
      ESP Fit Center  391 is at  -1.932894  1.597022 -1.956698
      ESP Fit Center  392 is at  -2.040561  1.195204 -1.956698
      ESP Fit Center  393 is at  -1.932894  0.793386 -1.956698
      ESP Fit Center  394 is at  -1.638743  0.499236 -1.956698
      ESP Fit Center  395 is at  -1.236926  0.391569 -1.956698
      ESP Fit Center  396 is at  -1.032081  1.550006 -2.076200
      ESP Fit Center  397 is at  -1.441771  1.550006 -2.076200
      ESP Fit Center  398 is at  -1.646616  1.195204 -2.076200
      ESP Fit Center  399 is at  -1.441771  0.840402 -2.076200
      ESP Fit Center  400 is at  -1.032081  0.840402 -2.076200
      ESP Fit Center  401 is at  -1.236926  1.195204 -2.116551
      ESP Fit Center  402 is at  -1.543269  2.511086  1.682297
      ESP Fit Center  403 is at  -1.978085  2.511086  1.682297
      ESP Fit Center  404 is at  -2.195493  2.134524  1.682297
      ESP Fit Center  405 is at  -1.340677  2.861985  1.514465
      ESP Fit Center  406 is at  -1.760677  2.974524  1.514465
      ESP Fit Center  407 is at  -2.180677  2.861985  1.514465
      ESP Fit Center  408 is at  -2.488138  2.554524  1.514465
      ESP Fit Center  409 is at  -2.600677  2.134524  1.514465
      ESP Fit Center  410 is at  -0.882779  2.934834  1.247481
      ESP Fit Center  411 is at  -1.231167  3.197924  1.247481
      ESP Fit Center  412 is at  -1.651068  3.317396  1.247481
      ESP Fit Center  413 is at  -2.085772  3.277115  1.247481
      ESP Fit Center  414 is at  -2.476570  3.082520  1.247481
      ESP Fit Center  415 is at  -2.770683  2.759894  1.247481
      ESP Fit Center  416 is at  -2.928389  2.352807  1.247481
      ESP Fit Center  417 is at  -2.928389  1.916241  1.247481
      ESP Fit Center  418 is at  -0.853547  3.272028  0.899542
      ESP Fit Center  419 is at  -1.229134  3.488873  0.899542
      ESP Fit Center  420 is at  -1.651950  3.585378  0.899542
      ESP Fit Center  421 is at  -2.084428  3.552969  0.899542
      ESP Fit Center  422 is at  -2.488138  3.394524  0.899542
      ESP Fit Center  423 is at  -2.827211  3.124123  0.899542
      ESP Fit Center  424 is at  -3.071517  2.765791  0.899542
      ESP Fit Center  425 is at  -3.199349  2.351369  0.899542
      ESP Fit Center  426 is at  -3.199349  1.917679  0.899542
      ESP Fit Center  427 is at  -0.613216  3.281985  0.494358
      ESP Fit Center  428 is at  -0.949299  3.539871  0.494358
      ESP Fit Center  429 is at  -1.340677  3.701985  0.494358
      ESP Fit Center  430 is at  -1.760677  3.757279  0.494358
      ESP Fit Center  431 is at  -2.180677  3.701985  0.494358
      ESP Fit Center  432 is at  -2.572055  3.539871  0.494358
      ESP Fit Center  433 is at  -2.908138  3.281985  0.494358
      ESP Fit Center  434 is at  -3.166024  2.945902  0.494358
      ESP Fit Center  435 is at  -3.328138  2.554524  0.494358
      ESP Fit Center  436 is at  -3.383432  2.134524  0.494358
      ESP Fit Center  437 is at  -0.536010  3.284563  0.059542
      ESP Fit Center  438 is at  -0.860488  3.552995  0.059542
      ESP Fit Center  439 is at  -1.241528  3.732299  0.059542
      ESP Fit Center  440 is at  -1.655189  3.811209  0.059542
      ESP Fit Center  441 is at  -2.075477  3.784767  0.059542
      ESP Fit Center  442 is at  -2.475986  3.654633  0.059542
      ESP Fit Center  443 is at  -2.831549  3.428986  0.059542
      ESP Fit Center  444 is at  -3.119825  3.122003  0.059542
      ESP Fit Center  445 is at  -3.322701  2.752973  0.059542
      ESP Fit Center  446 is at  -3.427430  2.345084  0.059542
      ESP Fit Center  447 is at  -0.613216  3.281985 -0.375274
      ESP Fit Center  448 is at  -0.949299  3.539871 -0.375274
      ESP Fit Center  449 is at  -1.340677  3.701985 -0.375274
      ESP Fit Center  450 is at  -1.760677  3.757279 -0.375274
      ESP Fit Center  451 is at  -2.180677  3.701985 -0.375274
      ESP Fit Center  452 is at  -2.572055  3.539871 -0.375274
      ESP Fit Center  453 is at  -2.908138  3.281985 -0.375274
      ESP Fit Center  454 is at  -3.166024  2.945902 -0.375274
      ESP Fit Center  455 is at  -3.328138  2.554524 -0.375274
      ESP Fit Center  456 is at  -3.383432  2.134524 -0.375274
      ESP Fit Center  457 is at  -0.853547  3.272028 -0.780458
      ESP Fit Center  458 is at  -1.229134  3.488873 -0.780458
      ESP Fit Center  459 is at  -1.651950  3.585378 -0.780458
      ESP Fit Center  460 is at  -2.084428  3.552969 -0.780458
      ESP Fit Center  461 is at  -2.488138  3.394524 -0.780458
      ESP Fit Center  462 is at  -2.827211  3.124123 -0.780458
      ESP Fit Center  463 is at  -3.071517  2.765791 -0.780458
      ESP Fit Center  464 is at  -3.199349  2.351369 -0.780458
      ESP Fit Center  465 is at  -3.199349  1.917679 -0.780458
      ESP Fit Center  466 is at  -1.231167  3.197924 -1.128397
      ESP Fit Center  467 is at  -1.651068  3.317396 -1.128397
      ESP Fit Center  468 is at  -2.085772  3.277115 -1.128397
      ESP Fit Center  469 is at  -2.476570  3.082520 -1.128397
      ESP Fit Center  470 is at  -2.770683  2.759894 -1.128397
      ESP Fit Center  471 is at  -2.928389  2.352807 -1.128397
      ESP Fit Center  472 is at  -2.928389  1.916241 -1.128397
      ESP Fit Center  473 is at  -1.340677  2.861985 -1.395381
      ESP Fit Center  474 is at  -1.760677  2.974524 -1.395381
      ESP Fit Center  475 is at  -2.180677  2.861985 -1.395381
      ESP Fit Center  476 is at  -2.488138  2.554524 -1.395381
      ESP Fit Center  477 is at  -2.600677  2.134524 -1.395381
      ESP Fit Center  478 is at  -1.978085  2.511086 -1.563213
      ESP Fit Center  479 is at  -1.988524  0.000056  2.201987
      ESP Fit Center  480 is at  -1.578834  0.000056  2.161636
      ESP Fit Center  481 is at  -1.783679  0.354858  2.161636
      ESP Fit Center  482 is at  -2.193369  0.354858  2.161636
      ESP Fit Center  483 is at  -2.398214  0.000056  2.161636
      ESP Fit Center  484 is at  -2.193369 -0.354746  2.161636
      ESP Fit Center  485 is at  -1.783679 -0.354746  2.161636
      ESP Fit Center  486 is at  -1.184889  0.000056  2.042134
      ESP Fit Center  487 is at  -1.292555  0.401874  2.042134
      ESP Fit Center  488 is at  -1.586706  0.696025  2.042134
      ESP Fit Center  489 is at  -1.988524  0.803691  2.042134
      ESP Fit Center  490 is at  -2.390341  0.696025  2.042134
      ESP Fit Center  491 is at  -2.390341 -0.695912  2.042134
      ESP Fit Center  492 is at  -1.988524 -0.803579  2.042134
      ESP Fit Center  493 is at  -1.586706 -0.695912  2.042134
      ESP Fit Center  494 is at  -1.292555 -0.401762  2.042134
      ESP Fit Center  495 is at  -0.821826  0.000056  1.848073
      ESP Fit Center  496 is at  -2.307806  1.122216  1.848073
      ESP Fit Center  497 is at  -2.307806 -1.122104  1.848073
      ESP Fit Center  498 is at  -0.503600  0.000056  1.586911
      ESP Fit Center  499 is at  -2.605384  1.350791  1.586911
      ESP Fit Center  500 is at  -2.605384 -1.350679  1.586911
      ESP Fit Center  501 is at  -2.960942  1.122287 -1.382937
      ESP Fit Center  502 is at  -2.960942 -1.122175 -1.382937
      ESP Fit Center  503 is at  -2.691616  0.931101 -1.644099
      ESP Fit Center  504 is at  -2.980470  0.614243 -1.644099
      ESP Fit Center  505 is at  -2.980470 -0.614131 -1.644099
      ESP Fit Center  506 is at  -2.691616 -0.930989 -1.644099
      ESP Fit Center  507 is at  -1.184889  0.000056 -1.838160
      ESP Fit Center  508 is at  -2.390341  0.696025 -1.838160
      ESP Fit Center  509 is at  -2.684492  0.401874 -1.838160
      ESP Fit Center  510 is at  -2.792159  0.000056 -1.838160
      ESP Fit Center  511 is at  -2.684492 -0.401762 -1.838160
      ESP Fit Center  512 is at  -2.390341 -0.695912 -1.838160
      ESP Fit Center  513 is at  -1.578834  0.000056 -1.957662
      ESP Fit Center  514 is at  -1.783679  0.354858 -1.957662
      ESP Fit Center  515 is at  -2.193369  0.354858 -1.957662
      ESP Fit Center  516 is at  -2.398214  0.000056 -1.957662
      ESP Fit Center  517 is at  -2.193369 -0.354746 -1.957662
      ESP Fit Center  518 is at  -1.783679 -0.354746 -1.957662
      ESP Fit Center  519 is at  -1.988524  0.000056 -1.998013
      ESP Fit Center  520 is at  -3.261386 -0.000159  2.259631
      ESP Fit Center  521 is at  -2.853879 -0.000159  2.216800
      ESP Fit Center  522 is at  -3.057632  0.352752  2.216800
      ESP Fit Center  523 is at  -3.465139  0.352752  2.216800
      ESP Fit Center  524 is at  -3.668893 -0.000159  2.216800
      ESP Fit Center  525 is at  -3.465139 -0.353070  2.216800
      ESP Fit Center  526 is at  -3.057632 -0.353070  2.216800
      ESP Fit Center  527 is at  -2.570987  0.398443  2.090180
      ESP Fit Center  528 is at  -2.862784  0.690240  2.090180
      ESP Fit Center  529 is at  -3.261386  0.797045  2.090180
      ESP Fit Center  530 is at  -3.659988  0.690240  2.090180
      ESP Fit Center  531 is at  -3.951785  0.398443  2.090180
      ESP Fit Center  532 is at  -4.058590 -0.000159  2.090180
      ESP Fit Center  533 is at  -3.951785 -0.398761  2.090180
      ESP Fit Center  534 is at  -3.659988 -0.690558  2.090180
      ESP Fit Center  535 is at  -3.261386 -0.797363  2.090180
      ESP Fit Center  536 is at  -2.862784 -0.690558  2.090180
      ESP Fit Center  537 is at  -2.570987 -0.398761  2.090180
      ESP Fit Center  538 is at  -2.747869  1.031122  1.885304
      ESP Fit Center  539 is at  -3.155087  1.146986  1.885304
      ESP Fit Center  540 is at  -3.576662  1.107921  1.885304
      ESP Fit Center  541 is at  -3.955657  0.919204  1.885304
      ESP Fit Center  542 is at  -4.240886  0.606322  1.885304
      ESP Fit Center  543 is at  -4.393829  0.211531  1.885304
      ESP Fit Center  544 is at  -4.393829 -0.211849  1.885304
      ESP Fit Center  545 is at  -4.240886 -0.606640  1.885304
      ESP Fit Center  546 is at  -3.955657 -0.919522  1.885304
      ESP Fit Center  547 is at  -3.576662 -1.108239  1.885304
      ESP Fit Center  548 is at  -3.155087 -1.147304  1.885304
      ESP Fit Center  549 is at  -2.747869 -1.031440  1.885304
      ESP Fit Center  550 is at  -2.656307  1.324778  1.611127
      ESP Fit Center  551 is at  -3.054095  1.441579  1.611127
      ESP Fit Center  552 is at  -3.468676  1.441579  1.611127
      ESP Fit Center  553 is at  -3.866464  1.324778  1.611127
      ESP Fit Center  554 is at  -4.215232  1.100639  1.611127
      ESP Fit Center  555 is at  -4.486725  0.787319  1.611127
      ESP Fit Center  556 is at  -4.658949  0.410202  1.611127
      ESP Fit Center  557 is at  -4.717950 -0.000159  1.611127
      ESP Fit Center  558 is at  -4.658949 -0.410520  1.611127
      ESP Fit Center  559 is at  -4.486725 -0.787637  1.611127
      ESP Fit Center  560 is at  -4.215232 -1.100956  1.611127
      ESP Fit Center  561 is at  -3.866464 -1.325096  1.611127
      ESP Fit Center  562 is at  -3.468676 -1.441897  1.611127
      ESP Fit Center  563 is at  -3.054095 -1.441897  1.611127
      ESP Fit Center  564 is at  -2.656307 -1.325096  1.611127
      ESP Fit Center  565 is at  -3.154805  1.693901  1.279631
      ESP Fit Center  566 is at  -3.579449  1.667185  1.279631
      ESP Fit Center  567 is at  -3.984108  1.535703  1.279631
      ESP Fit Center  568 is at  -4.343356  1.307718  1.279631
      ESP Fit Center  569 is at  -4.634619  0.997553  1.279631
      ESP Fit Center  570 is at  -4.839598  0.624699  1.279631
      ESP Fit Center  571 is at  -4.945411  0.212583  1.279631
      ESP Fit Center  572 is at  -4.945411 -0.212901  1.279631
      ESP Fit Center  573 is at  -4.839598 -0.625017  1.279631
      ESP Fit Center  574 is at  -4.634619 -0.997871  1.279631
      ESP Fit Center  575 is at  -4.343356 -1.308036  1.279631
      ESP Fit Center  576 is at  -3.984108 -1.536021  1.279631
      ESP Fit Center  577 is at  -3.579449 -1.667503  1.279631
      ESP Fit Center  578 is at  -3.154805 -1.694219  1.279631
      ESP Fit Center  579 is at  -3.261386  1.863912  0.905304
      ESP Fit Center  580 is at  -3.676181  1.817176  0.905304
      ESP Fit Center  581 is at  -4.070176  1.679311  0.905304
      ESP Fit Center  582 is at  -4.423615  1.457230  0.905304
      ESP Fit Center  583 is at  -4.718775  1.162070  0.905304
      ESP Fit Center  584 is at  -4.940856  0.808631  0.905304
      ESP Fit Center  585 is at  -5.078720  0.414636  0.905304
      ESP Fit Center  586 is at  -5.125457 -0.000159  0.905304
      ESP Fit Center  587 is at  -5.078720 -0.414954  0.905304
      ESP Fit Center  588 is at  -4.940856 -0.808949  0.905304
      ESP Fit Center  589 is at  -4.718775 -1.162388  0.905304
      ESP Fit Center  590 is at  -4.423615 -1.457548  0.905304
      ESP Fit Center  591 is at  -4.070176 -1.679629  0.905304
      ESP Fit Center  592 is at  -3.676181 -1.817494  0.905304
      ESP Fit Center  593 is at  -3.261386 -1.864230  0.905304
      ESP Fit Center  594 is at  -3.576741  1.923425  0.504507
      ESP Fit Center  595 is at  -3.982882  1.810661  0.504507
      ESP Fit Center  596 is at  -4.355287  1.613225  0.504507
      ESP Fit Center  597 is at  -4.676542  1.340348  0.504507
      ESP Fit Center  598 is at  -4.931626  1.004791  0.504507
      ESP Fit Center  599 is at  -5.108611  0.622244  0.504507
      ESP Fit Center  600 is at  -5.199222  0.210593  0.504507
      ESP Fit Center  601 is at  -5.199222 -0.210911  0.504507
      ESP Fit Center  602 is at  -5.108611 -0.622562  0.504507
      ESP Fit Center  603 is at  -4.931626 -1.005109  0.504507
      ESP Fit Center  604 is at  -4.676542 -1.340666  0.504507
      ESP Fit Center  605 is at  -4.355287 -1.613542  0.504507
      ESP Fit Center  606 is at  -3.982882 -1.810979  0.504507
      ESP Fit Center  607 is at  -3.576741 -1.923743  0.504507
      ESP Fit Center  608 is at  -3.576741  1.923425  0.094755
      ESP Fit Center  609 is at  -3.982882  1.810661  0.094755
      ESP Fit Center  610 is at  -4.355287  1.613225  0.094755
      ESP Fit Center  611 is at  -4.676542  1.340348  0.094755
      ESP Fit Center  612 is at  -4.931626  1.004791  0.094755
      ESP Fit Center  613 is at  -5.108611  0.622244  0.094755
      ESP Fit Center  614 is at  -5.199222  0.210593  0.094755
      ESP Fit Center  615 is at  -5.199222 -0.210911  0.094755
      ESP Fit Center  616 is at  -5.108611 -0.622562  0.094755
      ESP Fit Center  617 is at  -4.931626 -1.005109  0.094755
      ESP Fit Center  618 is at  -4.676542 -1.340666  0.094755
      ESP Fit Center  619 is at  -4.355287 -1.613542  0.094755
      ESP Fit Center  620 is at  -3.982882 -1.810979  0.094755
      ESP Fit Center  621 is at  -3.576741 -1.923743  0.094755
      ESP Fit Center  622 is at  -3.676181  1.817176 -0.306042
      ESP Fit Center  623 is at  -4.070176  1.679311 -0.306042
      ESP Fit Center  624 is at  -4.423615  1.457230 -0.306042
      ESP Fit Center  625 is at  -4.718775  1.162070 -0.306042
      ESP Fit Center  626 is at  -4.940856  0.808631 -0.306042
      ESP Fit Center  627 is at  -5.078720  0.414636 -0.306042
      ESP Fit Center  628 is at  -5.125457 -0.000159 -0.306042
      ESP Fit Center  629 is at  -5.078720 -0.414954 -0.306042
      ESP Fit Center  630 is at  -4.940856 -0.808949 -0.306042
      ESP Fit Center  631 is at  -4.718775 -1.162388 -0.306042
      ESP Fit Center  632 is at  -4.423615 -1.457548 -0.306042
      ESP Fit Center  633 is at  -4.070176 -1.679629 -0.306042
      ESP Fit Center  634 is at  -3.676181 -1.817494 -0.306042
      ESP Fit Center  635 is at  -3.579449  1.667185 -0.680369
      ESP Fit Center  636 is at  -3.984108  1.535703 -0.680369
      ESP Fit Center  637 is at  -4.343356  1.307718 -0.680369
      ESP Fit Center  638 is at  -4.634619  0.997553 -0.680369
      ESP Fit Center  639 is at  -4.839598  0.624699 -0.680369
      ESP Fit Center  640 is at  -4.945411  0.212583 -0.680369
      ESP Fit Center  641 is at  -4.945411 -0.212901 -0.680369
      ESP Fit Center  642 is at  -4.839598 -0.625017 -0.680369
      ESP Fit Center  643 is at  -4.634619 -0.997871 -0.680369
      ESP Fit Center  644 is at  -4.343356 -1.308036 -0.680369
      ESP Fit Center  645 is at  -3.984108 -1.536021 -0.680369
      ESP Fit Center  646 is at  -3.579449 -1.667503 -0.680369
      ESP Fit Center  647 is at  -3.468676  1.441579 -1.011865
      ESP Fit Center  648 is at  -3.866464  1.324778 -1.011865
      ESP Fit Center  649 is at  -4.215232  1.100639 -1.011865
      ESP Fit Center  650 is at  -4.486725  0.787319 -1.011865
      ESP Fit Center  651 is at  -4.658949  0.410202 -1.011865
      ESP Fit Center  652 is at  -4.717950 -0.000159 -1.011865
      ESP Fit Center  653 is at  -4.658949 -0.410520 -1.011865
      ESP Fit Center  654 is at  -4.486725 -0.787637 -1.011865
      ESP Fit Center  655 is at  -4.215232 -1.100956 -1.011865
      ESP Fit Center  656 is at  -3.866464 -1.325096 -1.011865
      ESP Fit Center  657 is at  -3.468676 -1.441897 -1.011865
      ESP Fit Center  658 is at  -3.155087  1.146986 -1.286042
      ESP Fit Center  659 is at  -3.576662  1.107921 -1.286042
      ESP Fit Center  660 is at  -3.955657  0.919204 -1.286042
      ESP Fit Center  661 is at  -4.240886  0.606322 -1.286042
      ESP Fit Center  662 is at  -4.393829  0.211531 -1.286042
      ESP Fit Center  663 is at  -4.393829 -0.211849 -1.286042
      ESP Fit Center  664 is at  -4.240886 -0.606640 -1.286042
      ESP Fit Center  665 is at  -3.955657 -0.919522 -1.286042
      ESP Fit Center  666 is at  -3.576662 -1.108239 -1.286042
      ESP Fit Center  667 is at  -3.155087 -1.147304 -1.286042
      ESP Fit Center  668 is at  -3.261386  0.797045 -1.490918
      ESP Fit Center  669 is at  -3.659988  0.690240 -1.490918
      ESP Fit Center  670 is at  -3.951785  0.398443 -1.490918
      ESP Fit Center  671 is at  -4.058590 -0.000159 -1.490918
      ESP Fit Center  672 is at  -3.951785 -0.398761 -1.490918
      ESP Fit Center  673 is at  -3.659988 -0.690558 -1.490918
      ESP Fit Center  674 is at  -3.261386 -0.797363 -1.490918
      ESP Fit Center  675 is at  -3.465139  0.352752 -1.617538
      ESP Fit Center  676 is at  -3.668893 -0.000159 -1.617538
      ESP Fit Center  677 is at  -3.465139 -0.353070 -1.617538
      ESP Fit Center  678 is at  -3.261386 -0.000159 -1.660369
      ESP Fit Center  679 is at   0.129932 -1.184114  1.871001
      ESP Fit Center  680 is at   0.539622 -1.184114  1.830650
      ESP Fit Center  681 is at   0.334777 -0.829312  1.830650
      ESP Fit Center  682 is at  -0.074913 -0.829312  1.830650
      ESP Fit Center  683 is at  -0.074913 -1.538916  1.830650
      ESP Fit Center  684 is at   0.334777 -1.538916  1.830650
      ESP Fit Center  685 is at   0.933567 -1.184114  1.711148
      ESP Fit Center  686 is at   0.825901 -0.782296  1.711148
      ESP Fit Center  687 is at   0.531750 -0.488145  1.711148
      ESP Fit Center  688 is at   0.129932 -0.380479  1.711148
      ESP Fit Center  689 is at  -0.271885 -0.488145  1.711148
      ESP Fit Center  690 is at   0.129932 -1.987749  1.711148
      ESP Fit Center  691 is at   0.531750 -1.880082  1.711148
      ESP Fit Center  692 is at   0.825901 -1.585932  1.711148
      ESP Fit Center  693 is at  -0.189350 -0.061954  1.517087
      ESP Fit Center  694 is at  -0.189350 -2.306274  1.517087
      ESP Fit Center  695 is at   0.237581 -2.345835  1.517087
      ESP Fit Center  696 is at   0.649974 -2.228499  1.517087
      ESP Fit Center  697 is at   0.992132 -1.970113  1.517087
      ESP Fit Center  698 is at   1.217845 -1.605574  1.517087
      ESP Fit Center  699 is at  -0.081395 -2.653924  1.255925
      ESP Fit Center  700 is at   0.341259 -2.653924  1.255925
      ESP Fit Center  701 is at   1.379130 -1.986925  1.255925
      ESP Fit Center  702 is at  -0.489239 -2.816733 -1.395696
      ESP Fit Center  703 is at  -0.486928 -2.534849 -1.713923
      ESP Fit Center  704 is at  -0.573160 -0.253069 -1.975085
      ESP Fit Center  705 is at  -0.573160 -2.115159 -1.975085
      ESP Fit Center  706 is at  -0.189350 -2.306274 -1.975085
      ESP Fit Center  707 is at   0.237581 -2.345835 -1.975085
      ESP Fit Center  708 is at   0.992132 -1.970113 -1.975085
      ESP Fit Center  709 is at   1.217845 -1.605574 -1.975085
      ESP Fit Center  710 is at   0.933567 -1.184114 -2.169146
      ESP Fit Center  711 is at  -0.271885 -0.488145 -2.169146
      ESP Fit Center  712 is at  -0.566036 -0.782296 -2.169146
      ESP Fit Center  713 is at  -0.673703 -1.184114 -2.169146
      ESP Fit Center  714 is at  -0.566036 -1.585932 -2.169146
      ESP Fit Center  715 is at  -0.271885 -1.880082 -2.169146
[...]
 4877 Fit      -0.173017
 4878 Fit      -0.172903
 4879 Fit      -0.172835
 4880 Fit      -0.172835
 4881 Fit      -0.172901
 4882 Fit      -0.173014
 4883 Fit      -0.173137
 4884 Fit      -0.173225
 4885 Fit      -0.173246
 4886 Fit      -0.173197
 4887 Fit      -0.173139
 4888 Fit      -0.174059
 4889 Fit      -0.173767
 4890 Fit      -0.173619
 4891 Fit      -0.173491
 4892 Fit      -0.173361
 4893 Fit      -0.173247
 4894 Fit      -0.173180
 4895 Fit      -0.173180
 4896 Fit      -0.173246
 4897 Fit      -0.173358
 4898 Fit      -0.173487
 4899 Fit      -0.173613
 4900 Fit      -0.173760
 4901 Fit      -0.174049
 4902 Fit      -0.174767
 4903 Fit      -0.174236
 4904 Fit      -0.173951
 4905 Fit      -0.173761
 4906 Fit      -0.173627
 4907 Fit      -0.173554
 4908 Fit      -0.173553
 4909 Fit      -0.173625
 4910 Fit      -0.173758
 4911 Fit      -0.173946
 4912 Fit      -0.174230
 4913 Fit      -0.174758
 4914 Fit      -0.176102
 4915 Fit      -0.175021
 4916 Fit      -0.174475
 4917 Fit      -0.174177
 4918 Fit      -0.174017
 4919 Fit      -0.173963
 4920 Fit      -0.174015
 4921 Fit      -0.174175
 4922 Fit      -0.174470
 4923 Fit      -0.175014
 4924 Fit      -0.176093
 4925 Fit      -0.177245
 4926 Fit      -0.175699
 4927 Fit      -0.174943
 4928 Fit      -0.174594
 4929 Fit      -0.174489
 4930 Fit      -0.174592
 4931 Fit      -0.174940
 4932 Fit      -0.175693
 4933 Fit      -0.177236
 4934 Fit      -0.176426
 4935 Fit      -0.175496
 4936 Fit      -0.175237
 4937 Fit      -0.175494
 4938 Fit      -0.176421
 4939 Fit      -0.176403
 4940 Fit      -0.140229
 4941 Fit      -0.132892
 4942 Fit      -0.140558
 4943 Fit      -0.148671
 4944 Fit      -0.140014
 4945 Fit      -0.132379
 4946 Fit      -0.132813
 4947 Fit      -0.141184
 4948 Fit      -0.150160
 4949 Fit      -0.130635
 4950 Fit      -0.125075
 4951 Fit      -0.123646
 4952 Fit      -0.160034
 4953 Fit      -0.129669
 4954 Fit      -0.122722
 4955 Fit      -0.118315
 4956 Fit      -0.116388
 4957 Fit      -0.122893
 4958 Fit      -0.116778
 4959 Fit      -0.112626
 4960 Fit      -0.110232
 4961 Fit      -0.121481
 4962 Fit      -0.115124
 4963 Fit      -0.110328
 4964 Fit      -0.106910
 4965 Fit      -0.104675
 4966 Fit      -0.116735
 4967 Fit      -0.110754
 4968 Fit      -0.106107
 4969 Fit      -0.102658
 4970 Fit      -0.100260
 4971 Fit      -0.112205
 4972 Fit      -0.109645
 4973 Fit      -0.110944
 4974 Fit      -0.111814
 4975 Fit      -0.114905
 4976 Fit      -0.108265
 4977 Fit      -0.118049
 4978 Fit      -0.111298
 4979 Fit      -0.105808
 4980 Fit      -0.101548
 4981 Fit      -0.096586
 4982 Fit      -0.126382
 4983 Fit      -0.118335
 4984 Fit      -0.111700
 4985 Fit      -0.106616
 4986 Fit      -0.103122
 4987 Fit      -0.101212
 4988 Fit      -0.150553
 4989 Fit      -0.150183
 4990 Fit      -0.140125
 4991 Fit      -0.132023
 4992 Fit      -0.123818
 4993 Fit      -0.116662
 4994 Fit      -0.111191
 4995 Fit      -0.107695
 4996 Fit      -0.106309
 4997 Fit      -0.107142
 4998 Fit      -0.114958
 4999 Fit      -0.139802
 5000 Fit      -0.141245
 5001 Fit      -0.138446
 5002 Fit      -0.132003
 5003 Fit      -0.124138
 5004 Fit      -0.117316
 5005 Fit      -0.113119
 5006 Fit      -0.112279
 5007 Fit      -0.119931
 5008 Fit      -0.126439
 5009 Fit      -0.132270
 5010 Fit      -0.131457
 5011 Fit      -0.124621
 5012 Fit      -0.118997
 5013 Fit      -0.125364
 5014 Fit      -0.103397
 5015 Fit      -0.099911
 5016 Fit      -0.102053
 5017 Fit      -0.097185
 5018 Fit      -0.094118
 5019 Fit      -0.092662
 5020 Fit      -0.103527
 5021 Fit      -0.097450
 5022 Fit      -0.092986
 5023 Fit      -0.089949
 5024 Fit      -0.088202
 5025 Fit      -0.087630
 5026 Fit      -0.105823
 5027 Fit      -0.099093
 5028 Fit      -0.093782
 5029 Fit      -0.089729
 5030 Fit      -0.086812
 5031 Fit      -0.084939
 5032 Fit      -0.084039
 5033 Fit      -0.084059
 5034 Fit      -0.099033
 5035 Fit      -0.093430
 5036 Fit      -0.089000
 5037 Fit      -0.085640
 5038 Fit      -0.083263
 5039 Fit      -0.081804
 5040 Fit      -0.081218
 5041 Fit      -0.081490
 5042 Fit      -0.099675
 5043 Fit      -0.093902
 5044 Fit      -0.089209
 5045 Fit      -0.085513
 5046 Fit      -0.082734
 5047 Fit      -0.080805
 5048 Fit      -0.079679
 5049 Fit      -0.079325
 5050 Fit      -0.079740
 5051 Fit      -0.080959
 5052 Fit      -0.103164
 5053 Fit      -0.096786
 5054 Fit      -0.091491
 5055 Fit      -0.087199
 5056 Fit      -0.083827
 5057 Fit      -0.081301
 5058 Fit      -0.079559
 5059 Fit      -0.078556
 5060 Fit      -0.078256
 5061 Fit      -0.078638
 5062 Fit      -0.098383
 5063 Fit      -0.092640
 5064 Fit      -0.087996
 5065 Fit      -0.084339
 5066 Fit      -0.081578
 5067 Fit      -0.079641
 5068 Fit      -0.078466
 5069 Fit      -0.077999
 5070 Fit      -0.078177
 5071 Fit      -0.103190
 5072 Fit      -0.096376
 5073 Fit      -0.090899
 5074 Fit      -0.086582
 5075 Fit      -0.083292
 5076 Fit      -0.080932
 5077 Fit      -0.079416
 5078 Fit      -0.078667
 5079 Fit      -0.078582
 5080 Fit      -0.101455
 5081 Fit      -0.095031
 5082 Fit      -0.089971
 5083 Fit      -0.086091
 5084 Fit      -0.083260
 5085 Fit      -0.081372
 5086 Fit      -0.080332
 5087 Fit      -0.080020
 5088 Fit      -0.105044
 5089 Fit      -0.097773
 5090 Fit      -0.092173
 5091 Fit      -0.088011
 5092 Fit      -0.085117
 5093 Fit      -0.083359
 5094 Fit      -0.082604
 5095 Fit      -0.101276
 5096 Fit      -0.095158
 5097 Fit      -0.090768
 5098 Fit      -0.087925
 5099 Fit      -0.086480
 5100 Fit      -0.086294
 5101 Fit      -0.100533
 5102 Fit      -0.095291
 5103 Fit      -0.092197
 5104 Fit      -0.091124
 5105 Fit      -0.098077
 5106 Fit      -0.154404
 5107 Fit      -0.150127
 5108 Fit      -0.156859
 5109 Fit      -0.162201
 5110 Fit      -0.159993
 5111 Fit      -0.152030
 5112 Fit      -0.147569
 5113 Fit      -0.146883
 5114 Fit      -0.152804
 5115 Fit      -0.159562
 5116 Fit      -0.167301
 5117 Fit      -0.158394
 5118 Fit      -0.149625
 5119 Fit      -0.143686
 5120 Fit      -0.141441
 5121 Fit      -0.142746
 5122 Fit      -0.150065
 5123 Fit      -0.156195
 5124 Fit      -0.166526
 5125 Fit      -0.155950
 5126 Fit      -0.147117
 5127 Fit      -0.140788
 5128 Fit      -0.137066
 5129 Fit      -0.135818
 5130 Fit      -0.136853
 5131 Fit      -0.139890
 5132 Fit      -0.161113
 5133 Fit      -0.169480
 5134 Fit      -0.157207
 5135 Fit      -0.147223
 5136 Fit      -0.139749
 5137 Fit      -0.134636
 5138 Fit      -0.131638
 5139 Fit      -0.130555
 5140 Fit      -0.131270
 5141 Fit      -0.166113
 5142 Fit      -0.153914
 5143 Fit      -0.137012
 5144 Fit      -0.131765
 5145 Fit      -0.128238
 5146 Fit      -0.126198
 5147 Fit      -0.125520
 5148 Fit      -0.174249
 5149 Fit      -0.123770
 5150 Fit      -0.121702
 5151 Fit      -0.120760
 5152 Fit      -0.117546
 5153 Fit      -0.116353
 5154 Fit      -0.112638
 5155 Fit      -0.110792
 5156 Fit      -0.164695
 5157 Fit      -0.115782
 5158 Fit      -0.168209
 5159 Fit      -0.157140
 5160 Fit      -0.147336
 5161 Fit      -0.139004
 5162 Fit      -0.126686
 5163 Fit      -0.122442
 5164 Fit      -0.119247
 5165 Fit      -0.169576
 5166 Fit      -0.160240
 5167 Fit      -0.151175
 5168 Fit      -0.143035
 5169 Fit      -0.136125
 5170 Fit      -0.130531
 5171 Fit      -0.126218
 5172 Fit      -0.123109
 5173 Fit      -0.161301
 5174 Fit      -0.153107
 5175 Fit      -0.145146
 5176 Fit      -0.138197
 5177 Fit      -0.132647
 5178 Fit      -0.128636
 5179 Fit      -0.162123
 5180 Fit      -0.158345
 5181 Fit      -0.151584
 5182 Fit      -0.144548
 5183 Fit      -0.138386
 5184 Fit      -0.133792
 5185 Fit      -0.131125
 5186 Fit      -0.157171
 5187 Fit      -0.158745
 5188 Fit      -0.157515
 5189 Fit      -0.153174
 5190 Fit      -0.146866
 5191 Fit      -0.140769
 5192 Fit      -0.136710
 5193 Fit      -0.149634
 5194 Fit      -0.152164
 5195 Fit      -0.149239
 5196 Fit      -0.143381
 5197 Fit      -0.140872
 5198 Fit      -0.146296
 5199 Fit      -0.141170
 5200 Fit      -0.156924
 5201 Fit      -0.143878
 5202 Fit      -0.134736
 5203 Fit      -0.129275
 5204 Fit      -0.127232
 5205 Fit      -0.171485
 5206 Fit      -0.154257
 5207 Fit      -0.141212
 5208 Fit      -0.131784
 5209 Fit      -0.125412
 5210 Fit      -0.121674
 5211 Fit      -0.120316
 5212 Fit      -0.121261
 5213 Fit      -0.158464
 5214 Fit      -0.143680
 5215 Fit      -0.132784
 5216 Fit      -0.124936
 5217 Fit      -0.119558
 5218 Fit      -0.116262
 5219 Fit      -0.114808
 5220 Fit      -0.115091
 5221 Fit      -0.162931
 5222 Fit      -0.146849
 5223 Fit      -0.134895
 5224 Fit      -0.126020
 5225 Fit      -0.119538
 5226 Fit      -0.114993
 5227 Fit      -0.112075
 5228 Fit      -0.110579
 5229 Fit      -0.110383
 5230 Fit      -0.111457
 5231 Fit      -0.165248
 5232 Fit      -0.148060
 5233 Fit      -0.135370
 5234 Fit      -0.125911
 5235 Fit      -0.118897
 5236 Fit      -0.113811
 5237 Fit      -0.110307
 5238 Fit      -0.108138
 5239 Fit      -0.107129
 5240 Fit      -0.107155
 5241 Fit      -0.108142
 5242 Fit      -0.166776
 5243 Fit      -0.149277
 5244 Fit      -0.136309
 5245 Fit      -0.126559
 5246 Fit      -0.119217
 5247 Fit      -0.113757
 5248 Fit      -0.109819
 5249 Fit      -0.107149
 5250 Fit      -0.105549
 5251 Fit      -0.104858
 5252 Fit      -0.104917
 5253 Fit      -0.157183
 5254 Fit      -0.142409
 5255 Fit      -0.131272
 5256 Fit      -0.122805
 5257 Fit      -0.116387
 5258 Fit      -0.111601
 5259 Fit      -0.108152
 5260 Fit      -0.105818
 5261 Fit      -0.104418
 5262 Fit      -0.103775
 5263 Fit      -0.103682
 5264 Fit      -0.163467
 5265 Fit      -0.147113
 5266 Fit      -0.134814
 5267 Fit      -0.125471
 5268 Fit      -0.118380
 5269 Fit      -0.113070
 5270 Fit      -0.109211
 5271 Fit      -0.106553
 5272 Fit      -0.104895
 5273 Fit      -0.104043
 5274 Fit      -0.103766
 5275 Fit      -0.159305
 5276 Fit      -0.144154
 5277 Fit      -0.132658
 5278 Fit      -0.123924
 5279 Fit      -0.117351
 5280 Fit      -0.112520
 5281 Fit      -0.109124
 5282 Fit      -0.106929
 5283 Fit      -0.105728
 5284 Fit      -0.105308
 5285 Fit      -0.172732
 5286 Fit      -0.155257
 5287 Fit      -0.141706
 5288 Fit      -0.131270
 5289 Fit      -0.123324
 5290 Fit      -0.117403
 5291 Fit      -0.113163
 5292 Fit      -0.110343
 5293 Fit      -0.108737
 5294 Fit      -0.108168
 5295 Fit      -0.165780
 5296 Fit      -0.150342
 5297 Fit      -0.138170
 5298 Fit      -0.128849
 5299 Fit      -0.121945
 5300 Fit      -0.117095
 5301 Fit      -0.114014
 5302 Fit      -0.112492
 5303 Fit      -0.112387
 5304 Fit      -0.146489
 5305 Fit      -0.135822
 5306 Fit      -0.127837
 5307 Fit      -0.122296
 5308 Fit      -0.118959
 5309 Fit      -0.117653
 5310 Fit      -0.138267
 5311 Fit      -0.130635
 5312 Fit      -0.126012
 5313 Fit      -0.083391
 5314 Fit      -0.079536
 5315 Fit      -0.082647
 5316 Fit      -0.087083
 5317 Fit      -0.088212
 5318 Fit      -0.084382
 5319 Fit      -0.080191
 5320 Fit      -0.076502
 5321 Fit      -0.094306
 5322 Fit      -0.094172
 5323 Fit      -0.090745
 5324 Fit      -0.085637
 5325 Fit      -0.080814
 5326 Fit      -0.077490
 5327 Fit      -0.076064
 5328 Fit      -0.102208
 5329 Fit      -0.101482
 5330 Fit      -0.098020
 5331 Fit      -0.092813
 5332 Fit      -0.087151
 5333 Fit      -0.082041
 5334 Fit      -0.078024
 5335 Fit      -0.075280
 5336 Fit      -0.073789
 5337 Fit      -0.073453
 5338 Fit      -0.111349
 5339 Fit      -0.108725
 5340 Fit      -0.103718
 5341 Fit      -0.097415
 5342 Fit      -0.090939
 5343 Fit      -0.085079
 5344 Fit      -0.080231
 5345 Fit      -0.076511
 5346 Fit      -0.073886
 5347 Fit      -0.072266
 5348 Fit      -0.071542
 5349 Fit      -0.071618
 5350 Fit      -0.122415
 5351 Fit      -0.119148
 5352 Fit      -0.113177
 5353 Fit      -0.105683
 5354 Fit      -0.097920
 5355 Fit      -0.090782
 5356 Fit      -0.084704
 5357 Fit      -0.079806
 5358 Fit      -0.076041
 5359 Fit      -0.073302
 5360 Fit      -0.071469
 5361 Fit      -0.070427
 5362 Fit      -0.070076
 5363 Fit      -0.115587
 5364 Fit      -0.106302
 5365 Fit      -0.097741
 5366 Fit      -0.090399
 5367 Fit      -0.084375
 5368 Fit      -0.079585
 5369 Fit      -0.075884
 5370 Fit      -0.073125
 5371 Fit      -0.071180
 5372 Fit      -0.069934
 5373 Fit      -0.069290
 5374 Fit      -0.103189
 5375 Fit      -0.094444
 5376 Fit      -0.087424
 5377 Fit      -0.081896
 5378 Fit      -0.077607
 5379 Fit      -0.074349
 5380 Fit      -0.071957
 5381 Fit      -0.070300
 5382 Fit      -0.069264
 5383 Fit      -0.068749
 5384 Fit      -0.098586
 5385 Fit      -0.090672
 5386 Fit      -0.084534
 5387 Fit      -0.079772
 5388 Fit      -0.076102
 5389 Fit      -0.073328
 5390 Fit      -0.071304
 5391 Fit      -0.069914
 5392 Fit      -0.069052
 5393 Fit      -0.088905
 5394 Fit      -0.083379
 5395 Fit      -0.079083
 5396 Fit      -0.075756
 5397 Fit      -0.073232
 5398 Fit      -0.071386
 5399 Fit      -0.070115
 5400 Fit      -0.080459
 5401 Fit      -0.076990
 5402 Fit      -0.074321
 5403 Fit      -0.072347
 5404 Fit      -0.079178
 5405 Fit      -0.076209
 5406 Fit      -0.073952
 5407 Fit      -0.083387
 5408 Fit      -0.079531
 5409 Fit      -0.080187
 5410 Fit      -0.084378
 5411 Fit      -0.088208
 5412 Fit      -0.087079
 5413 Fit      -0.082642
 5414 Fit      -0.076497
 5415 Fit      -0.076059
 5416 Fit      -0.077485
 5417 Fit      -0.080810
 5418 Fit      -0.085633
 5419 Fit      -0.090741
 5420 Fit      -0.094168
 5421 Fit      -0.094301
 5422 Fit      -0.073448
 5423 Fit      -0.073783
 5424 Fit      -0.075275
 5425 Fit      -0.078020
 5426 Fit      -0.082036
 5427 Fit      -0.087147
 5428 Fit      -0.092810
 5429 Fit      -0.098016
 5430 Fit      -0.101478
 5431 Fit      -0.102203
 5432 Fit      -0.071612
 5433 Fit      -0.071536
 5434 Fit      -0.072260
 5435 Fit      -0.073881
 5436 Fit      -0.076506
 5437 Fit      -0.080227
 5438 Fit      -0.085075
 5439 Fit      -0.090935
 5440 Fit      -0.097411
 5441 Fit      -0.103714
 5442 Fit      -0.108722
 5443 Fit      -0.111344
 5444 Fit      -0.070069
 5445 Fit      -0.070421
 5446 Fit      -0.071464
 5447 Fit      -0.073297
 5448 Fit      -0.076036
 5449 Fit      -0.079801
 5450 Fit      -0.084700
 5451 Fit      -0.090777
 5452 Fit      -0.097917
 5453 Fit      -0.105679
 5454 Fit      -0.113173
 5455 Fit      -0.119144
 5456 Fit      -0.122410
 5457 Fit      -0.069283
 5458 Fit      -0.069928
 5459 Fit      -0.071174
 5460 Fit      -0.073119
 5461 Fit      -0.075878
 5462 Fit      -0.079580
 5463 Fit      -0.084371
 5464 Fit      -0.090394
 5465 Fit      -0.097737
 5466 Fit      -0.106297
 5467 Fit      -0.115583
 5468 Fit      -0.068743
 5469 Fit      -0.069257
 5470 Fit      -0.070294
 5471 Fit      -0.071951
 5472 Fit      -0.074343
 5473 Fit      -0.077601
 5474 Fit      -0.081891
 5475 Fit      -0.087420
 5476 Fit      -0.094439
 5477 Fit      -0.103184
 5478 Fit      -0.069046
 5479 Fit      -0.069907
 5480 Fit      -0.071298
 5481 Fit      -0.073322
 5482 Fit      -0.076097
 5483 Fit      -0.079767
 5484 Fit      -0.084529
 5485 Fit      -0.090667
 5486 Fit      -0.098581
 5487 Fit      -0.070108
 5488 Fit      -0.071380
 5489 Fit      -0.073226
 5490 Fit      -0.075751
 5491 Fit      -0.079078
 5492 Fit      -0.083374
 5493 Fit      -0.088900
 5494 Fit      -0.072341
 5495 Fit      -0.074315
 5496 Fit      -0.076985
 5497 Fit      -0.080454
 5498 Fit      -0.073947
 5499 Fit      -0.076204
 5500 Fit      -0.079174
 5501 Fit      -0.063548
 5502 Fit      -0.063968
 5503 Fit      -0.065217
 5504 Fit      -0.065214
 5505 Fit      -0.063966
 5506 Fit      -0.061252
 5507 Fit      -0.061596
 5508 Fit      -0.062623
 5509 Fit      -0.064320
 5510 Fit      -0.064316
 5511 Fit      -0.062621
 5512 Fit      -0.061595
 5513 Fit      -0.059425
 5514 Fit      -0.059708
 5515 Fit      -0.060553
 5516 Fit      -0.061956
 5517 Fit      -0.063906
 5518 Fit      -0.063901
 5519 Fit      -0.061952
 5520 Fit      -0.060550
 5521 Fit      -0.059707
 5522 Fit      -0.058062
 5523 Fit      -0.058324
 5524 Fit      -0.059107
 5525 Fit      -0.060409
 5526 Fit      -0.062226
 5527 Fit      -0.064547
 5528 Fit      -0.064541
 5529 Fit      -0.062221
 5530 Fit      -0.060405
 5531 Fit      -0.059104
 5532 Fit      -0.058322
 5533 Fit      -0.057160
 5534 Fit      -0.057398
 5535 Fit      -0.058111
 5536 Fit      -0.059297
 5537 Fit      -0.060955
 5538 Fit      -0.063078
 5539 Fit      -0.065655
 5540 Fit      -0.065648
 5541 Fit      -0.063072
 5542 Fit      -0.060950
 5543 Fit      -0.059294
 5544 Fit      -0.058109
 5545 Fit      -0.057397
 5546 Fit      -0.056723
 5547 Fit      -0.056948
 5548 Fit      -0.057622
 5549 Fit      -0.058745
 5550 Fit      -0.060313
 5551 Fit      -0.062322
 5552 Fit      -0.064764
 5553 Fit      -0.064757
 5554 Fit      -0.062316
 5555 Fit      -0.060308
 5556 Fit      -0.058741
 5557 Fit      -0.057620
 5558 Fit      -0.056947
 5559 Fit      -0.056753
 5560 Fit      -0.056986
 5561 Fit      -0.057685
 5562 Fit      -0.058848
 5563 Fit      -0.060469
 5564 Fit      -0.062542
 5565 Fit      -0.065055
 5566 Fit      -0.065047
 5567 Fit      -0.062536
 5568 Fit      -0.060464
 5569 Fit      -0.058844
 5570 Fit      -0.057683
 5571 Fit      -0.056985
 5572 Fit      -0.057258
 5573 Fit      -0.057510
 5574 Fit      -0.058264
 5575 Fit      -0.059514
 5576 Fit      -0.061253
 5577 Fit      -0.063465
 5578 Fit      -0.066125
 5579 Fit      -0.066117
 5580 Fit      -0.063458
 5581 Fit      -0.061248
 5582 Fit      -0.059510
 5583 Fit      -0.058261
 5584 Fit      -0.057508
 5585 Fit      -0.058249
 5586 Fit      -0.058516
 5587 Fit      -0.059315
 5588 Fit      -0.060636
 5589 Fit      -0.062462
 5590 Fit      -0.064764
 5591 Fit      -0.064758
 5592 Fit      -0.062457
 5593 Fit      -0.060632
 5594 Fit      -0.059312
 5595 Fit      -0.058515
 5596 Fit      -0.059743
 5597 Fit      -0.060064
 5598 Fit      -0.061018
 5599 Fit      -0.062587
 5600 Fit      -0.064729
 5601 Fit      -0.067365
 5602 Fit      -0.067359
 5603 Fit      -0.064723
 5604 Fit      -0.062583
 5605 Fit      -0.061016
 5606 Fit      -0.060062
 5607 Fit      -0.061769
 5608 Fit      -0.062157
 5609 Fit      -0.063305
 5610 Fit      -0.065168
 5611 Fit      -0.065163
 5612 Fit      -0.063302
 5613 Fit      -0.062155
 5614 Fit      -0.064378
 5615 Fit      -0.064905
 5616 Fit      -0.066450
 5617 Fit      -0.066446
 5618 Fit      -0.064904
 -----------------------------------------------------------------
 Leave Link  602 at Mon Dec 12 17:57:54 2022, MaxMem=   134217728 cpu:         0.3

 Test job not archived.
 1\1\NSC-N124\SP\RHF\6-31G(d)\C8H9O1(1-)\X_GABOA\12-Dec-2022\0\\#HF/6-3
 1G* scrf=smd SCF=tight Test Pop=MK iop(6/33=2) iop(6/42=6) # iop(6/50=
 1)\\calc RESP charges\\-1,1\C,0,-3.149714,0.0001,0.773539\C,0,-2.35814
 4,-0.000038,-0.538548\H,0,-2.648097,-0.870302,-1.121614\H,0,-2.647899,
 0.870246,-1.121682\C,0,-0.856226,-0.000156,-0.340471\C,0,-0.129922,-1.
 184192,-0.22892\H,0,-0.647503,-2.127032,-0.314287\C,0,1.236926,-1.1952
 04,-0.016551\H,0,1.760677,-2.134524,0.059542\C,0,1.988524,-0.000056,0.
 101987\O,0,3.261386,0.000159,0.299631\C,0,-0.129932,1.184114,-0.228999
 \H,0,-0.647673,2.12686,-0.314413\C,0,1.236739,1.195199,-0.016636\H,0,1
 .760593,2.134463,0.059399\H,0,-2.914807,0.877613,1.369397\H,0,-2.91551
 9,-0.877756,1.369175\H,0,-4.220356,0.000561,0.585024\\Version=ES64L-G0
 9RevE.01\State=1-A\HF=-383.1446078\RMSD=6.670e-09\Dipole=-5.1079117,0.
 0001657,-0.4300405\Quadrupole=-20.3436941,12.6303056,7.7133884,-0.0008
 045,-2.071617,-0.0003863\PG=C01 [X(C8H9O1)]\\@


 GOD DOES NOT PLAY WITH DICE.
               -- A. EINSTEIN
 Job cpu time:       0 days  0 hours  0 minutes 12.3 seconds.
 File lengths (MBytes):  RWF=     45 Int=      0 D2E=      0 Chk=      8 Scr=      1
 Normal termination of Gaussian 09 at Mon Dec 12 17:57:54 2022.
