 Entering Gaussian System, Link 0=/software/sse/easybuild/prefix/software/Gaussian/09.E.01-avx-nsc1-bdist/g09/g09.orig
 Input=nad.wrap
 Output=nad.log
 Initial command:
 /software/sse/easybuild/prefix/software/Gaussian/09.E.01-avx-nsc1-bdist/g09/l1.exe "/scratch/local/Gau-118330.inp" -scrdir="/scratch/local/"
 Entering Link 1 = /software/sse/easybuild/prefix/software/Gaussian/09.E.01-avx-nsc1-bdist/g09/l1.exe PID=    118331.
  
 Copyright (c) 1988,1990,1992,1993,1995,1998,2003,2009,2015,
            Gaussian, Inc.  All Rights Reserved.
  
 This is part of the Gaussian(R) 09 program.  It is based on
 the Gaussian(R) 03 system (copyright 2003, Gaussian, Inc.),
 the Gaussian(R) 98 system (copyright 1998, Gaussian, Inc.),
 the Gaussian(R) 94 system (copyright 1995, Gaussian, Inc.),
 the Gaussian 92(TM) system (copyright 1992, Gaussian, Inc.),
 the Gaussian 90(TM) system (copyright 1990, Gaussian, Inc.),
 the Gaussian 88(TM) system (copyright 1988, Gaussian, Inc.),
 the Gaussian 86(TM) system (copyright 1986, Carnegie Mellon
 University), and the Gaussian 82(TM) system (copyright 1983,
 Carnegie Mellon University). Gaussian is a federally registered
 trademark of Gaussian, Inc.
  
 This software contains proprietary and confidential information,
 including trade secrets, belonging to Gaussian, Inc.
  
 This software is provided under written license and may be
 used, copied, transmitted, or stored only in accord with that
 written license.
  
 The following legend is applicable only to US Government
 contracts under FAR:
  
                    RESTRICTED RIGHTS LEGEND
  
 Use, reproduction and disclosure by the US Government is
 subject to restrictions as set forth in subparagraphs (a)
 and (c) of the Commercial Computer Software - Restricted
 Rights clause in FAR 52.227-19.
  
 Gaussian, Inc.
 340 Quinnipiac St., Bldg. 40, Wallingford CT 06492
  
  
 ---------------------------------------------------------------
 Warning -- This program may not be used in any manner that
 competes with the business of Gaussian, Inc. or will provide
 assistance to any competitor of Gaussian, Inc.  The licensee
 of this program is prohibited from giving any competitor of
 Gaussian, Inc. access to this program.  By using this program,
 the user acknowledges that Gaussian, Inc. is engaged in the
 business of creating and licensing software in the field of
 computational chemistry and represents and warrants to the
 licensee that it is not a competitor of Gaussian, Inc. and that
 it will not use this program in any manner prohibited above.
 ---------------------------------------------------------------
  

 Cite this work as:
 Gaussian 09, Revision E.01,
 M. J. Frisch, G. W. Trucks, H. B. Schlegel, G. E. Scuseria, 
 M. A. Robb, J. R. Cheeseman, G. Scalmani, V. Barone, B. Mennucci, 
 G. A. Petersson, H. Nakatsuji, M. Caricato, X. Li, H. P. Hratchian, 
 A. F. Izmaylov, J. Bloino, G. Zheng, J. L. Sonnenberg, M. Hada, 
 M. Ehara, K. Toyota, R. Fukuda, J. Hasegawa, M. Ishida, T. Nakajima, 
 Y. Honda, O. Kitao, H. Nakai, T. Vreven, J. A. Montgomery, Jr., 
 J. E. Peralta, F. Ogliaro, M. Bearpark, J. J. Heyd, E. Brothers, 
 K. N. Kudin, V. N. Staroverov, T. Keith, R. Kobayashi, J. Normand, 
 K. Raghavachari, A. Rendell, J. C. Burant, S. S. Iyengar, J. Tomasi, 
 M. Cossi, N. Rega, J. M. Millam, M. Klene, J. E. Knox, J. B. Cross, 
 V. Bakken, C. Adamo, J. Jaramillo, R. Gomperts, R. E. Stratmann, 
 O. Yazyev, A. J. Austin, R. Cammi, C. Pomelli, J. W. Ochterski, 
 R. L. Martin, K. Morokuma, V. G. Zakrzewski, G. A. Voth, 
 P. Salvador, J. J. Dannenberg, S. Dapprich, A. D. Daniels, 
 O. Farkas, J. B. Foresman, J. V. Ortiz, J. Cioslowski, 
 and D. J. Fox, Gaussian, Inc., Wallingford CT, 2013.
 
 ******************************************
 Gaussian 09:  ES64L-G09RevE.01 30-Nov-2015
                13-Dec-2022 
 ******************************************
 %nproc=16
 Will use up to   16 processors via shared memory.
 %chk=nad
 -----------------------
 #HF/6-31G* scrf=smd opt
 -----------------------
 1/14=-1,18=20,19=15,38=1/1,3;
 2/9=110,12=2,17=6,18=5,40=1/2;
 3/5=1,6=6,7=1,11=9,16=1,25=1,30=1,70=32201,71=1,72=1/1,2,3;
 4//1;
 5/5=2,38=5/2;
 6/7=2,8=2,9=2,10=2,28=1/1;
 7//1,2,3,16;
 1/14=-1,18=20,19=15/3(2);
 2/9=110/2;
 99//99;
 2/9=110/2;
 3/5=1,6=6,7=1,11=9,16=1,25=1,30=1,70=32205,71=1/1,2,3;
 4/5=5,16=3,69=1/1;
 5/5=2,38=5/2;
 7//1,2,3,16;
 1/14=-1,18=20,19=15/3(-5);
 2/9=110/2;
 6/7=2,8=2,9=2,10=2,19=2,28=1/1;
 99/9=1/99;
 ---------------------
 remark line goes here
 ---------------------
 Symbolic Z-matrix:
 Charge = -1 Multiplicity = 1
 C                    -6.47851   2.98373  -0.99175 
 H                    -6.19832   4.01893  -0.99161 
 C                    -7.52612   2.53723  -1.65737 
 H                    -8.11521   3.23934  -2.21935 
 C                    -7.94439   1.09092  -1.65664 
 H                    -8.08593   0.74414  -2.67693 
 C                    -6.89811   0.2457   -0.9575 
 C                    -7.11646  -1.21736  -1.00071 
 O                    -8.16257  -1.65495  -1.47064 
 N                    -6.19541  -2.06332  -0.52013 
 H                    -5.27008  -1.81238  -0.24711 
 H                    -6.3843   -3.03716  -0.62103 
 C                    -5.86724   0.79443  -0.30892 
 H                    -5.13534   0.19526   0.19034 
 N                    -5.65849   2.15234  -0.20989 
 C                    -4.39444   2.65759   0.24663 
 H                    -4.4532    3.73575   0.19282 
 C                    -3.97133   2.26442   1.66139 
 H                    -4.18274   1.21996   1.84226 
 O                    -4.56163   3.06026   2.65347 
 H                    -5.45158   2.75865   2.7971 
 C                    -2.45448   2.45066   1.61221 
 H                    -1.95099   1.78138   2.29175 
 O                    -2.04339   3.74468   1.98731 
 H                    -2.42393   4.39426   1.40579 
 C                    -2.11881   2.13503   0.14261 
 H                    -1.4488    2.8956   -0.23915 
 O                    -3.34638   2.19039  -0.57428 
 C                    -1.47415   0.78886  -0.09573 
 H                    -1.33542   0.63702  -1.1565 
 H                    -0.51137   0.75123   0.3979 
 O                    -2.32301  -0.21854   0.42864 
 P                    -2.13878  -1.77102   0.09115 
 O                    -1.758    -1.96395  -1.32768 
 O                    -3.32989  -2.45911   0.64245 
 O                    -0.853    -2.08809   1.03259 
 P                     0.16578  -3.34748   0.98876 
 O                     0.95675  -3.26991   2.23975 
 O                    -0.57063  -4.58335   0.63922 
 O                     1.09107  -2.99795  -0.27446 
 C                     1.83938  -1.79629  -0.34773 
 H                     1.95702  -1.35032   0.63037 
 H                     1.31635  -1.10015  -0.98834 
 C                     3.19432  -2.12228  -0.94962 
 H                     3.0558   -2.66184  -1.87667 
 O                     3.84933  -0.88519  -1.22755 
 C                     4.12416  -2.89915  -0.01296 
 H                     3.57918  -3.44316   0.7412 
 O                     4.91804  -3.85378  -0.6819 
 H                     5.25963  -3.50084  -1.4973 
 C                     4.98175  -1.78657   0.59047 
 H                     4.44779  -1.32212   1.40726 
 O                     6.22067  -2.20617   1.08481 
 H                     6.5587   -2.88076   0.50357 
 C                     5.09077  -0.8048   -0.57521 
 H                     5.88985  -1.09823  -1.23933 
 N                     5.34561   0.564    -0.20498 
 C                     4.55803   1.35994   0.58627 
 H                     3.66004   0.98173   1.02748 
 N                     4.99782   2.55721   0.72389 
 C                     6.16173   2.57895  -0.02766 
 C                     7.10765   3.57523  -0.28888 
 N                     6.9968    4.82909   0.18555 
 H                     6.38653   4.98978   0.95726 
 H                     7.81073   5.40426   0.14489 
 N                     8.14152   3.27538  -1.07471 
 C                     8.22393   2.04854  -1.57406 
 H                     9.07654   1.86535  -2.20089 
 N                     7.40648   1.035    -1.40106 
 C                     6.38209   1.35388  -0.61214 
 

 GradGradGradGradGradGradGradGradGradGradGradGradGradGradGradGradGradGrad
 Berny optimization.
 Initialization pass.
                           ----------------------------
                           !    Initial Parameters    !
                           ! (Angstroms and Degrees)  !
 --------------------------                            --------------------------
 ! Name  Definition              Value          Derivative Info.                !
 --------------------------------------------------------------------------------
 ! R1    R(1,2)                  1.0724         estimate D2E/DX2                !
 ! R2    R(1,3)                  1.3191         estimate D2E/DX2                !
 ! R3    R(1,15)                 1.4053         estimate D2E/DX2                !
 ! R4    R(3,4)                  1.0751         estimate D2E/DX2                !
 ! R5    R(3,5)                  1.5056         estimate D2E/DX2                !
 ! R6    R(5,6)                  1.0869         estimate D2E/DX2                !
 ! R7    R(5,7)                  1.5159         estimate D2E/DX2                !
 ! R8    R(7,8)                  1.4799         estimate D2E/DX2                !
 ! R9    R(7,13)                 1.3358         estimate D2E/DX2                !
 ! R10   R(8,9)                  1.2275         estimate D2E/DX2                !
 ! R11   R(8,10)                 1.3397         estimate D2E/DX2                !
 ! R12   R(10,11)                0.9969         estimate D2E/DX2                !
 ! R13   R(10,12)                0.9971         estimate D2E/DX2                !
 ! R14   R(13,14)                1.0696         estimate D2E/DX2                !
 ! R15   R(13,15)                1.3774         estimate D2E/DX2                !
 ! R16   R(15,16)                1.4358         estimate D2E/DX2                !
 ! R17   R(16,17)                1.0811         estimate D2E/DX2                !
 ! R18   R(16,18)                1.5281         estimate D2E/DX2                !
 ! R19   R(16,28)                1.4109         estimate D2E/DX2                !
 ! R20   R(18,19)                1.0809         estimate D2E/DX2                !
 ! R21   R(18,20)                1.4022         estimate D2E/DX2                !
 ! R22   R(18,22)                1.529          estimate D2E/DX2                !
 ! R23   R(20,21)                0.9506         estimate D2E/DX2                !
 ! R24   R(22,23)                1.0785         estimate D2E/DX2                !
 ! R25   R(22,24)                1.4086         estimate D2E/DX2                !
 ! R26   R(22,26)                1.5401         estimate D2E/DX2                !
 ! R27   R(24,25)                0.9513         estimate D2E/DX2                !
 ! R28   R(26,27)                1.0831         estimate D2E/DX2                !
 ! R29   R(26,28)                1.4226         estimate D2E/DX2                !
 ! R30   R(26,29)                1.5115         estimate D2E/DX2                !
 ! R31   R(29,30)                1.0805         estimate D2E/DX2                !
 ! R32   R(29,31)                1.0826         estimate D2E/DX2                !
 ! R33   R(29,32)                1.4179         estimate D2E/DX2                !
 ! R34   R(32,33)                1.5994         estimate D2E/DX2                !
 ! R35   R(33,34)                1.4817         estimate D2E/DX2                !
 ! R36   R(33,35)                1.4819         estimate D2E/DX2                !
 ! R37   R(33,36)                1.6248         estimate D2E/DX2                !
 ! R38   R(36,37)                1.6205         estimate D2E/DX2                !
 ! R39   R(37,38)                1.4821         estimate D2E/DX2                !
 ! R40   R(37,39)                1.4805         estimate D2E/DX2                !
 ! R41   R(37,40)                1.6044         estimate D2E/DX2                !
 ! R42   R(40,41)                1.4175         estimate D2E/DX2                !
 ! R43   R(41,42)                1.0814         estimate D2E/DX2                !
 ! R44   R(41,43)                1.081          estimate D2E/DX2                !
 ! R45   R(41,44)                1.518          estimate D2E/DX2                !
 ! R46   R(44,45)                1.0815         estimate D2E/DX2                !
 ! R47   R(44,46)                1.4271         estimate D2E/DX2                !
 ! R48   R(44,47)                1.5315         estimate D2E/DX2                !
 ! R49   R(46,55)                1.4047         estimate D2E/DX2                !
 ! R50   R(47,48)                1.0778         estimate D2E/DX2                !
 ! R51   R(47,49)                1.4103         estimate D2E/DX2                !
 ! R52   R(47,51)                1.5289         estimate D2E/DX2                !
 ! R53   R(49,50)                0.9519         estimate D2E/DX2                !
 ! R54   R(51,52)                1.0807         estimate D2E/DX2                !
 ! R55   R(51,53)                1.3983         estimate D2E/DX2                !
 ! R56   R(51,55)                1.5279         estimate D2E/DX2                !
 ! R57   R(53,54)                0.9525         estimate D2E/DX2                !
 ! R58   R(55,56)                1.0797         estimate D2E/DX2                !
 ! R59   R(55,57)                1.4407         estimate D2E/DX2                !
 ! R60   R(57,58)                1.3711         estimate D2E/DX2                !
 ! R61   R(57,70)                1.3653         estimate D2E/DX2                !
 ! R62   R(58,59)                1.0696         estimate D2E/DX2                !
 ! R63   R(58,60)                1.2829         estimate D2E/DX2                !
 ! R64   R(60,61)                1.3856         estimate D2E/DX2                !
 ! R65   R(61,62)                1.3984         estimate D2E/DX2                !
 ! R66   R(61,70)                1.3751         estimate D2E/DX2                !
 ! R67   R(62,63)                1.3452         estimate D2E/DX2                !
 ! R68   R(62,66)                1.3328         estimate D2E/DX2                !
 ! R69   R(63,64)                0.9969         estimate D2E/DX2                !
 ! R70   R(63,65)                0.9975         estimate D2E/DX2                !
 ! R71   R(66,67)                1.3271         estimate D2E/DX2                !
 ! R72   R(67,68)                1.074          estimate D2E/DX2                !
 ! R73   R(67,69)                1.3136         estimate D2E/DX2                !
 ! R74   R(69,70)                1.3317         estimate D2E/DX2                !
 ! A1    A(2,1,3)              122.297          estimate D2E/DX2                !
 ! A2    A(2,1,15)             114.742          estimate D2E/DX2                !
 ! A3    A(3,1,15)             122.9507         estimate D2E/DX2                !
 ! A4    A(1,3,4)              118.5482         estimate D2E/DX2                !
 ! A5    A(1,3,5)              123.0641         estimate D2E/DX2                !
 ! A6    A(4,3,5)              118.385          estimate D2E/DX2                !
 ! A7    A(3,5,6)              110.0125         estimate D2E/DX2                !
 ! A8    A(3,5,7)              110.1268         estimate D2E/DX2                !
 ! A9    A(6,5,7)              110.1786         estimate D2E/DX2                !
 ! A10   A(5,7,8)              115.8445         estimate D2E/DX2                !
 ! A11   A(5,7,13)             121.8389         estimate D2E/DX2                !
 ! A12   A(8,7,13)             122.2854         estimate D2E/DX2                !
 ! A13   A(7,8,9)              119.2986         estimate D2E/DX2                !
 ! A14   A(7,8,10)             120.8198         estimate D2E/DX2                !
 ! A15   A(9,8,10)             119.8769         estimate D2E/DX2                !
 ! A16   A(8,10,11)            125.2708         estimate D2E/DX2                !
 ! A17   A(8,10,12)            116.7537         estimate D2E/DX2                !
 ! A18   A(11,10,12)           116.7059         estimate D2E/DX2                !
 ! A19   A(7,13,14)            121.6416         estimate D2E/DX2                !
 ! A20   A(7,13,15)            123.8359         estimate D2E/DX2                !
 ! A21   A(14,13,15)           114.5192         estimate D2E/DX2                !
 ! A22   A(1,15,13)            117.051          estimate D2E/DX2                !
 ! A23   A(1,15,16)            118.8438         estimate D2E/DX2                !
 ! A24   A(13,15,16)           120.2113         estimate D2E/DX2                !
 ! A25   A(15,16,17)           106.6941         estimate D2E/DX2                !
 ! A26   A(15,16,18)           116.5891         estimate D2E/DX2                !
 ! A27   A(15,16,28)           110.6383         estimate D2E/DX2                !
 ! A28   A(17,16,18)           108.5247         estimate D2E/DX2                !
 ! A29   A(17,16,28)           109.9778         estimate D2E/DX2                !
 ! A30   A(18,16,28)           104.3473         estimate D2E/DX2                !
 ! A31   A(16,18,19)           110.4501         estimate D2E/DX2                !
 ! A32   A(16,18,20)           113.1077         estimate D2E/DX2                !
 ! A33   A(16,18,22)           102.3311         estimate D2E/DX2                !
 ! A34   A(19,18,20)           110.3476         estimate D2E/DX2                !
 ! A35   A(19,18,22)           108.4878         estimate D2E/DX2                !
 ! A36   A(20,18,22)           111.7936         estimate D2E/DX2                !
 ! A37   A(18,20,21)           108.7213         estimate D2E/DX2                !
 ! A38   A(18,22,23)           111.5469         estimate D2E/DX2                !
 ! A39   A(18,22,24)           113.1315         estimate D2E/DX2                !
 ! A40   A(18,22,26)           102.8231         estimate D2E/DX2                !
 ! A41   A(23,22,24)           105.4292         estimate D2E/DX2                !
 ! A42   A(23,22,26)           111.857          estimate D2E/DX2                !
 ! A43   A(24,22,26)           112.2566         estimate D2E/DX2                !
 ! A44   A(22,24,25)           110.3511         estimate D2E/DX2                !
 ! A45   A(22,26,27)           109.1012         estimate D2E/DX2                !
 ! A46   A(22,26,28)           106.5465         estimate D2E/DX2                !
 ! A47   A(22,26,29)           115.2104         estimate D2E/DX2                !
 ! A48   A(27,26,28)           109.1984         estimate D2E/DX2                !
 ! A49   A(27,26,29)           107.8184         estimate D2E/DX2                !
 ! A50   A(28,26,29)           108.8577         estimate D2E/DX2                !
 ! A51   A(16,28,26)           111.1416         estimate D2E/DX2                !
 ! A52   A(26,29,30)           109.5557         estimate D2E/DX2                !
 ! A53   A(26,29,31)           109.7769         estimate D2E/DX2                !
 ! A54   A(26,29,32)           108.6109         estimate D2E/DX2                !
 ! A55   A(30,29,31)           109.1813         estimate D2E/DX2                !
 ! A56   A(30,29,32)           109.8819         estimate D2E/DX2                !
 ! A57   A(31,29,32)           109.8217         estimate D2E/DX2                !
 ! A58   A(29,32,33)           122.8656         estimate D2E/DX2                !
 ! A59   A(32,33,34)           110.9808         estimate D2E/DX2                !
 ! A60   A(32,33,35)           106.2377         estimate D2E/DX2                !
 ! A61   A(32,33,36)            99.1084         estimate D2E/DX2                !
 ! A62   A(34,33,35)           120.1552         estimate D2E/DX2                !
 ! A63   A(34,33,36)           109.0297         estimate D2E/DX2                !
 ! A64   A(35,33,36)           109.2618         estimate D2E/DX2                !
 ! A65   A(33,36,37)           129.3084         estimate D2E/DX2                !
 ! A66   A(36,37,38)           105.7844         estimate D2E/DX2                !
 ! A67   A(36,37,39)           110.0254         estimate D2E/DX2                !
 ! A68   A(36,37,40)           102.3899         estimate D2E/DX2                !
 ! A69   A(38,37,39)           120.5589         estimate D2E/DX2                !
 ! A70   A(38,37,40)           110.2057         estimate D2E/DX2                !
 ! A71   A(39,37,40)           106.4297         estimate D2E/DX2                !
 ! A72   A(37,40,41)           121.9944         estimate D2E/DX2                !
 ! A73   A(40,41,42)           111.118          estimate D2E/DX2                !
 ! A74   A(40,41,43)           108.7308         estimate D2E/DX2                !
 ! A75   A(40,41,44)           108.0374         estimate D2E/DX2                !
 ! A76   A(42,41,43)           108.8481         estimate D2E/DX2                !
 ! A77   A(42,41,44)           110.4928         estimate D2E/DX2                !
 ! A78   A(43,41,44)           109.5837         estimate D2E/DX2                !
 ! A79   A(41,44,45)           109.4315         estimate D2E/DX2                !
 ! A80   A(41,44,46)           107.5013         estimate D2E/DX2                !
 ! A81   A(41,44,47)           114.1017         estimate D2E/DX2                !
 ! A82   A(45,44,46)           108.9228         estimate D2E/DX2                !
 ! A83   A(45,44,47)           110.4222         estimate D2E/DX2                !
 ! A84   A(46,44,47)           106.2701         estimate D2E/DX2                !
 ! A85   A(44,46,55)           111.395          estimate D2E/DX2                !
 ! A86   A(44,47,48)           112.1471         estimate D2E/DX2                !
 ! A87   A(44,47,49)           113.268          estimate D2E/DX2                !
 ! A88   A(44,47,51)           102.2877         estimate D2E/DX2                !
 ! A89   A(48,47,49)           105.953          estimate D2E/DX2                !
 ! A90   A(48,47,51)           112.0093         estimate D2E/DX2                !
 ! A91   A(49,47,51)           111.3482         estimate D2E/DX2                !
 ! A92   A(47,49,50)           110.9359         estimate D2E/DX2                !
 ! A93   A(47,51,52)           109.5051         estimate D2E/DX2                !
 ! A94   A(47,51,53)           114.7176         estimate D2E/DX2                !
 ! A95   A(47,51,55)           101.9176         estimate D2E/DX2                !
 ! A96   A(52,51,53)           107.4289         estimate D2E/DX2                !
 ! A97   A(52,51,55)           109.6158         estimate D2E/DX2                !
 ! A98   A(53,51,55)           113.5343         estimate D2E/DX2                !
 ! A99   A(51,53,54)           108.1338         estimate D2E/DX2                !
 ! A100  A(46,55,51)           104.7415         estimate D2E/DX2                !
 ! A101  A(46,55,56)           110.6638         estimate D2E/DX2                !
 ! A102  A(46,55,57)           109.2714         estimate D2E/DX2                !
 ! A103  A(51,55,56)           110.3316         estimate D2E/DX2                !
 ! A104  A(51,55,57)           115.2803         estimate D2E/DX2                !
 ! A105  A(56,55,57)           106.5815         estimate D2E/DX2                !
 ! A106  A(55,57,58)           126.7439         estimate D2E/DX2                !
 ! A107  A(55,57,70)           127.3959         estimate D2E/DX2                !
 ! A108  A(58,57,70)           105.8034         estimate D2E/DX2                !
 ! A109  A(57,58,59)           120.9999         estimate D2E/DX2                !
 ! A110  A(57,58,60)           114.0011         estimate D2E/DX2                !
 ! A111  A(59,58,60)           124.9979         estimate D2E/DX2                !
 ! A112  A(58,60,61)           104.1477         estimate D2E/DX2                !
 ! A113  A(60,61,62)           132.8967         estimate D2E/DX2                !
 ! A114  A(60,61,70)           110.5577         estimate D2E/DX2                !
 ! A115  A(62,61,70)           116.5456         estimate D2E/DX2                !
 ! A116  A(61,62,63)           122.8501         estimate D2E/DX2                !
 ! A117  A(61,62,66)           118.331          estimate D2E/DX2                !
 ! A118  A(63,62,66)           118.7886         estimate D2E/DX2                !
 ! A119  A(62,63,64)           118.2759         estimate D2E/DX2                !
 ! A120  A(62,63,65)           117.1207         estimate D2E/DX2                !
 ! A121  A(64,63,65)           115.9847         estimate D2E/DX2                !
 ! A122  A(62,66,67)           118.5546         estimate D2E/DX2                !
 ! A123  A(66,67,68)           115.2514         estimate D2E/DX2                !
 ! A124  A(66,67,69)           128.6891         estimate D2E/DX2                !
 ! A125  A(68,67,69)           116.0593         estimate D2E/DX2                !
 ! A126  A(67,69,70)           111.8373         estimate D2E/DX2                !
 ! A127  A(57,70,61)           105.4865         estimate D2E/DX2                !
 ! A128  A(57,70,69)           128.471          estimate D2E/DX2                !
 ! A129  A(61,70,69)           126.0418         estimate D2E/DX2                !
 ! D1    D(2,1,3,4)              0.1233         estimate D2E/DX2                !
 ! D2    D(2,1,3,5)           -179.2648         estimate D2E/DX2                !
 ! D3    D(15,1,3,4)           178.8967         estimate D2E/DX2                !
 ! D4    D(15,1,3,5)            -0.4915         estimate D2E/DX2                !
 ! D5    D(2,1,15,13)         -171.9384         estimate D2E/DX2                !
 ! D6    D(2,1,15,16)          -14.0787         estimate D2E/DX2                !
 ! D7    D(3,1,15,13)            9.2032         estimate D2E/DX2                !
 ! D8    D(3,1,15,16)          167.0629         estimate D2E/DX2                !
 ! D9    D(1,3,5,6)           -129.2694         estimate D2E/DX2                !
 ! D10   D(1,3,5,7)             -7.6368         estimate D2E/DX2                !
 ! D11   D(4,3,5,6)             51.3416         estimate D2E/DX2                !
 ! D12   D(4,3,5,7)            172.9741         estimate D2E/DX2                !
 ! D13   D(3,5,7,8)           -174.1889         estimate D2E/DX2                !
 ! D14   D(3,5,7,13)             7.7961         estimate D2E/DX2                !
 ! D15   D(6,5,7,8)            -52.6552         estimate D2E/DX2                !
 ! D16   D(6,5,7,13)           129.3298         estimate D2E/DX2                !
 ! D17   D(5,7,8,9)             -6.7807         estimate D2E/DX2                !
 ! D18   D(5,7,8,10)           174.0124         estimate D2E/DX2                !
 ! D19   D(13,7,8,9)           171.2246         estimate D2E/DX2                !
 ! D20   D(13,7,8,10)           -7.9823         estimate D2E/DX2                !
 ! D21   D(5,7,13,14)          179.4733         estimate D2E/DX2                !
 ! D22   D(5,7,13,15)            0.1701         estimate D2E/DX2                !
 ! D23   D(8,7,13,14)            1.5865         estimate D2E/DX2                !
 ! D24   D(8,7,13,15)         -177.7167         estimate D2E/DX2                !
 ! D25   D(7,8,10,11)          -10.3828         estimate D2E/DX2                !
 ! D26   D(7,8,10,12)         -177.0387         estimate D2E/DX2                !
 ! D27   D(9,8,10,11)          170.4148         estimate D2E/DX2                !
 ! D28   D(9,8,10,12)            3.759          estimate D2E/DX2                !
 ! D29   D(7,13,15,1)           -9.0108         estimate D2E/DX2                !
 ! D30   D(7,13,15,16)        -166.5528         estimate D2E/DX2                !
 ! D31   D(14,13,15,1)         171.6413         estimate D2E/DX2                !
 ! D32   D(14,13,15,16)         14.0993         estimate D2E/DX2                !
 ! D33   D(1,15,16,17)          20.0886         estimate D2E/DX2                !
 ! D34   D(1,15,16,18)         141.49           estimate D2E/DX2                !
 ! D35   D(1,15,16,28)         -99.5222         estimate D2E/DX2                !
 ! D36   D(13,15,16,17)        177.2335         estimate D2E/DX2                !
 ! D37   D(13,15,16,18)        -61.3651         estimate D2E/DX2                !
 ! D38   D(13,15,16,28)         57.6228         estimate D2E/DX2                !
 ! D39   D(15,16,18,19)         42.7373         estimate D2E/DX2                !
 ! D40   D(15,16,18,20)        -81.4975         estimate D2E/DX2                !
 ! D41   D(15,16,18,22)        158.0742         estimate D2E/DX2                !
 ! D42   D(17,16,18,19)        163.1684         estimate D2E/DX2                !
 ! D43   D(17,16,18,20)         38.9336         estimate D2E/DX2                !
 ! D44   D(17,16,18,22)        -81.4947         estimate D2E/DX2                !
 ! D45   D(28,16,18,19)        -79.5973         estimate D2E/DX2                !
 ! D46   D(28,16,18,20)        156.1678         estimate D2E/DX2                !
 ! D47   D(28,16,18,22)         35.7395         estimate D2E/DX2                !
 ! D48   D(15,16,28,26)       -153.1978         estimate D2E/DX2                !
 ! D49   D(17,16,28,26)         89.1867         estimate D2E/DX2                !
 ! D50   D(18,16,28,26)        -27.0398         estimate D2E/DX2                !
 ! D51   D(16,18,20,21)         79.1708         estimate D2E/DX2                !
 ! D52   D(19,18,20,21)        -45.12           estimate D2E/DX2                !
 ! D53   D(22,18,20,21)       -165.9521         estimate D2E/DX2                !
 ! D54   D(16,18,22,23)       -150.8806         estimate D2E/DX2                !
 ! D55   D(16,18,22,24)         90.4523         estimate D2E/DX2                !
 ! D56   D(16,18,22,26)        -30.8556         estimate D2E/DX2                !
 ! D57   D(19,18,22,23)        -34.1243         estimate D2E/DX2                !
 ! D58   D(19,18,22,24)       -152.7914         estimate D2E/DX2                !
 ! D59   D(19,18,22,26)         85.9007         estimate D2E/DX2                !
 ! D60   D(20,18,22,23)         87.7832         estimate D2E/DX2                !
 ! D61   D(20,18,22,24)        -30.884          estimate D2E/DX2                !
 ! D62   D(20,18,22,26)       -152.1919         estimate D2E/DX2                !
 ! D63   D(18,22,24,25)        -60.0362         estimate D2E/DX2                !
 ! D64   D(23,22,24,25)        177.8094         estimate D2E/DX2                !
 ! D65   D(26,22,24,25)         55.7871         estimate D2E/DX2                !
 ! D66   D(18,22,26,27)        133.816          estimate D2E/DX2                !
 ! D67   D(18,22,26,28)         16.0463         estimate D2E/DX2                !
 ! D68   D(18,22,26,29)       -104.7875         estimate D2E/DX2                !
 ! D69   D(23,22,26,27)       -106.3735         estimate D2E/DX2                !
 ! D70   D(23,22,26,28)        135.8568         estimate D2E/DX2                !
 ! D71   D(23,22,26,29)         15.023          estimate D2E/DX2                !
 ! D72   D(24,22,26,27)         11.9135         estimate D2E/DX2                !
 ! D73   D(24,22,26,28)       -105.8562         estimate D2E/DX2                !
 ! D74   D(24,22,26,29)        133.31           estimate D2E/DX2                !
 ! D75   D(22,26,28,16)          6.8583         estimate D2E/DX2                !
 ! D76   D(27,26,28,16)       -110.8472         estimate D2E/DX2                !
 ! D77   D(29,26,28,16)        131.6797         estimate D2E/DX2                !
 ! D78   D(22,26,29,30)        176.4929         estimate D2E/DX2                !
 ! D79   D(22,26,29,31)        -63.6229         estimate D2E/DX2                !
 ! D80   D(22,26,29,32)         56.4643         estimate D2E/DX2                !
 ! D81   D(27,26,29,30)        -61.4184         estimate D2E/DX2                !
 ! D82   D(27,26,29,31)         58.4658         estimate D2E/DX2                !
 ! D83   D(27,26,29,32)        178.553          estimate D2E/DX2                !
 ! D84   D(28,26,29,30)         56.9267         estimate D2E/DX2                !
 ! D85   D(28,26,29,31)        176.811          estimate D2E/DX2                !
 ! D86   D(28,26,29,32)        -63.1019         estimate D2E/DX2                !
 ! D87   D(26,29,32,33)        166.4072         estimate D2E/DX2                !
 ! D88   D(30,29,32,33)         46.5818         estimate D2E/DX2                !
 ! D89   D(31,29,32,33)        -73.5335         estimate D2E/DX2                !
 ! D90   D(29,32,33,34)        -38.9636         estimate D2E/DX2                !
 ! D91   D(29,32,33,35)       -171.1892         estimate D2E/DX2                !
 ! D92   D(29,32,33,36)         75.5653         estimate D2E/DX2                !
 ! D93   D(32,33,36,37)       -163.4204         estimate D2E/DX2                !
 ! D94   D(34,33,36,37)        -47.3874         estimate D2E/DX2                !
 ! D95   D(35,33,36,37)         85.7241         estimate D2E/DX2                !
 ! D96   D(33,36,37,38)       -168.2019         estimate D2E/DX2                !
 ! D97   D(33,36,37,39)        -36.4908         estimate D2E/DX2                !
 ! D98   D(33,36,37,40)         76.357          estimate D2E/DX2                !
 ! D99   D(36,37,40,41)         57.9779         estimate D2E/DX2                !
 ! D100  D(38,37,40,41)        -54.2084         estimate D2E/DX2                !
 ! D101  D(39,37,40,41)        173.4649         estimate D2E/DX2                !
 ! D102  D(37,40,41,42)         18.4547         estimate D2E/DX2                !
 ! D103  D(37,40,41,43)       -101.3239         estimate D2E/DX2                !
 ! D104  D(37,40,41,44)        139.8181         estimate D2E/DX2                !
 ! D105  D(40,41,44,45)         52.2291         estimate D2E/DX2                !
 ! D106  D(40,41,44,46)        170.3809         estimate D2E/DX2                !
 ! D107  D(40,41,44,47)        -72.0458         estimate D2E/DX2                !
 ! D108  D(42,41,44,45)        173.9793         estimate D2E/DX2                !
 ! D109  D(42,41,44,46)        -67.8688         estimate D2E/DX2                !
 ! D110  D(42,41,44,47)         49.7044         estimate D2E/DX2                !
 ! D111  D(43,41,44,45)        -66.0852         estimate D2E/DX2                !
 ! D112  D(43,41,44,46)         52.0667         estimate D2E/DX2                !
 ! D113  D(43,41,44,47)        169.6399         estimate D2E/DX2                !
 ! D114  D(41,44,46,55)        122.9284         estimate D2E/DX2                !
 ! D115  D(45,44,46,55)       -118.5914         estimate D2E/DX2                !
 ! D116  D(47,44,46,55)          0.3761         estimate D2E/DX2                !
 ! D117  D(41,44,47,48)         23.6801         estimate D2E/DX2                !
 ! D118  D(41,44,47,49)        143.5501         estimate D2E/DX2                !
 ! D119  D(41,44,47,51)        -96.5019         estimate D2E/DX2                !
 ! D120  D(45,44,47,48)       -100.0625         estimate D2E/DX2                !
 ! D121  D(45,44,47,49)         19.8075         estimate D2E/DX2                !
 ! D122  D(45,44,47,51)        139.7556         estimate D2E/DX2                !
 ! D123  D(46,44,47,48)        141.9584         estimate D2E/DX2                !
 ! D124  D(46,44,47,49)        -98.1715         estimate D2E/DX2                !
 ! D125  D(46,44,47,51)         21.7765         estimate D2E/DX2                !
 ! D126  D(44,46,55,51)        -22.6246         estimate D2E/DX2                !
 ! D127  D(44,46,55,56)         96.2711         estimate D2E/DX2                !
 ! D128  D(44,46,55,57)       -146.666          estimate D2E/DX2                !
 ! D129  D(44,47,49,50)         42.237          estimate D2E/DX2                !
 ! D130  D(48,47,49,50)        165.5848         estimate D2E/DX2                !
 ! D131  D(51,47,49,50)        -72.3955         estimate D2E/DX2                !
 ! D132  D(44,47,51,52)         82.0868         estimate D2E/DX2                !
 ! D133  D(44,47,51,53)       -157.0586         estimate D2E/DX2                !
 ! D134  D(44,47,51,55)        -33.9377         estimate D2E/DX2                !
 ! D135  D(48,47,51,52)        -38.1911         estimate D2E/DX2                !
 ! D136  D(48,47,51,53)         82.6635         estimate D2E/DX2                !
 ! D137  D(48,47,51,55)       -154.2156         estimate D2E/DX2                !
 ! D138  D(49,47,51,52)       -156.634          estimate D2E/DX2                !
 ! D139  D(49,47,51,53)        -35.7794         estimate D2E/DX2                !
 ! D140  D(49,47,51,55)         87.3416         estimate D2E/DX2                !
 ! D141  D(47,51,53,54)         37.2304         estimate D2E/DX2                !
 ! D142  D(52,51,53,54)        159.22           estimate D2E/DX2                !
 ! D143  D(55,51,53,54)        -79.4132         estimate D2E/DX2                !
 ! D144  D(47,51,55,46)         35.1983         estimate D2E/DX2                !
 ! D145  D(47,51,55,56)        -83.9215         estimate D2E/DX2                !
 ! D146  D(47,51,55,57)        155.31           estimate D2E/DX2                !
 ! D147  D(52,51,55,46)        -80.7455         estimate D2E/DX2                !
 ! D148  D(52,51,55,56)        160.1348         estimate D2E/DX2                !
 ! D149  D(52,51,55,57)         39.3663         estimate D2E/DX2                !
 ! D150  D(53,51,55,46)        159.1193         estimate D2E/DX2                !
 ! D151  D(53,51,55,56)         39.9995         estimate D2E/DX2                !
 ! D152  D(53,51,55,57)        -80.769          estimate D2E/DX2                !
 ! D153  D(46,55,57,58)         57.728          estimate D2E/DX2                !
 ! D154  D(46,55,57,70)       -119.1341         estimate D2E/DX2                !
 ! D155  D(51,55,57,58)        -59.8683         estimate D2E/DX2                !
 ! D156  D(51,55,57,70)        123.2696         estimate D2E/DX2                !
 ! D157  D(56,55,57,58)        177.3424         estimate D2E/DX2                !
 ! D158  D(56,55,57,70)          0.4802         estimate D2E/DX2                !
 ! D159  D(55,57,58,59)          1.7264         estimate D2E/DX2                !
 ! D160  D(55,57,58,60)       -177.9134         estimate D2E/DX2                !
 ! D161  D(70,57,58,59)        179.136          estimate D2E/DX2                !
 ! D162  D(70,57,58,60)         -0.5038         estimate D2E/DX2                !
 ! D163  D(55,57,70,61)        177.9823         estimate D2E/DX2                !
 ! D164  D(55,57,70,69)         -2.3028         estimate D2E/DX2                !
 ! D165  D(58,57,70,61)          0.595          estimate D2E/DX2                !
 ! D166  D(58,57,70,69)       -179.69           estimate D2E/DX2                !
 ! D167  D(57,58,60,61)          0.1735         estimate D2E/DX2                !
 ! D168  D(59,58,60,61)       -179.4496         estimate D2E/DX2                !
 ! D169  D(58,60,61,62)       -179.8836         estimate D2E/DX2                !
 ! D170  D(58,60,61,70)          0.2274         estimate D2E/DX2                !
 ! D171  D(60,61,62,63)         -1.8624         estimate D2E/DX2                !
 ! D172  D(60,61,62,66)       -179.834          estimate D2E/DX2                !
 ! D173  D(70,61,62,63)        178.0213         estimate D2E/DX2                !
 ! D174  D(70,61,62,66)          0.0497         estimate D2E/DX2                !
 ! D175  D(60,61,70,57)         -0.5266         estimate D2E/DX2                !
 ! D176  D(60,61,70,69)        179.7493         estimate D2E/DX2                !
 ! D177  D(62,61,70,57)        179.5643         estimate D2E/DX2                !
 ! D178  D(62,61,70,69)         -0.1597         estimate D2E/DX2                !
 ! D179  D(61,62,63,64)         18.6945         estimate D2E/DX2                !
 ! D180  D(61,62,63,65)        165.2537         estimate D2E/DX2                !
 ! D181  D(66,62,63,64)       -163.3427         estimate D2E/DX2                !
 ! D182  D(66,62,63,65)        -16.7836         estimate D2E/DX2                !
 ! D183  D(61,62,66,67)          0.1316         estimate D2E/DX2                !
 ! D184  D(63,62,66,67)       -177.9241         estimate D2E/DX2                !
 ! D185  D(62,66,67,68)        179.9033         estimate D2E/DX2                !
 ! D186  D(62,66,67,69)         -0.2544         estimate D2E/DX2                !
 ! D187  D(66,67,69,70)          0.1493         estimate D2E/DX2                !
 ! D188  D(68,67,69,70)        179.9905         estimate D2E/DX2                !
 ! D189  D(67,69,70,57)       -179.5926         estimate D2E/DX2                !
 ! D190  D(67,69,70,61)          0.0677         estimate D2E/DX2                !
 --------------------------------------------------------------------------------
 Trust Radius=3.00D-01 FncErr=1.00D-07 GrdErr=1.00D-07
 Number of steps in this run=    403 maximum allowed number of steps=    420.
 GradGradGradGradGradGradGradGradGradGradGradGradGradGradGradGradGradGrad

 Stoichiometry    C21H26N7O14P2(1-)
 Framework group  C1[X(C21H26N7O14P2)]
 Deg. of freedom   204
 Full point group                 C1      NOp   1
 Largest Abelian subgroup         C1      NOp   1
 Largest concise Abelian subgroup C1      NOp   1
                         Standard orientation:                         
 ---------------------------------------------------------------------
 Center     Atomic      Atomic             Coordinates (Angstroms)
 Number     Number       Type             X           Y           Z
 ---------------------------------------------------------------------
      1          6           0       -6.498906    2.995161   -1.005833
      2          1           0       -6.217247    4.029959   -1.006011
      3          6           0       -7.546264    2.549701   -1.672556
      4          1           0       -8.133605    3.252274   -2.235786
      5          6           0       -7.966591    1.103988   -1.671420
      6          1           0       -8.107269    0.756730   -2.691667
      7          6           0       -6.922451    0.257754   -0.970322
      8          6           0       -7.142821   -1.205027   -1.012848
      9          8           0       -8.188927   -1.641437   -1.483879
     10          7           0       -6.223618   -2.051969   -0.530476
     11          1           0       -5.298301   -1.802167   -0.256386
     12          1           0       -6.413760   -3.025607   -0.630982
     13          6           0       -5.891667    0.805447   -0.320736
     14          1           0       -5.161286    0.205572    0.179901
     15          7           0       -5.681117    2.163130   -0.222325
     16          6           0       -4.416959    2.666883    0.235534
     17          1           0       -4.474114    3.745089    0.180933
     18          6           0       -3.996297    2.274062    1.651118
     19          1           0       -4.209425    1.230016    1.832408
     20          8           0       -4.586785    3.071398    2.641886
     21          1           0       -5.477351    2.771155    2.784530
     22          6           0       -2.479114    2.458111    1.603839
     23          1           0       -1.977483    1.788567    2.284499
     24          8           0       -2.066687    3.751791    1.978626
     25          1           0       -2.445527    4.401524    1.396169
     26          6           0       -2.141933    2.141023    0.134898
     27          1           0       -1.470340    2.900382   -0.246470
     28          8           0       -3.368467    2.197647   -0.583660
     29          6           0       -1.498881    0.793779   -0.101682
     30          1           0       -1.358953    0.641028   -1.162160
     31          1           0       -0.536805    0.755109    0.393257
     32          8           0       -2.349862   -0.212062    0.422222
     33         15           0       -2.167397   -1.765035    0.086017
     34          8           0       -1.784997   -1.959452   -1.332179
     35          8           0       -3.360222   -2.451062    0.636187
     36          8           0       -0.883324   -2.083297    1.029378
     37         15           0        0.133719   -3.344166    0.987747
     38          8           0        0.923128   -3.266888    2.239740
     39          8           0       -0.603978   -4.579222    0.638054
     40          8           0        1.061185   -2.996797   -0.274471
     41          6           0        1.811307   -1.796250   -0.347537
     42          1           0        1.928277   -1.349793    0.630411
     43          1           0        1.290121   -1.099795   -0.989314
     44          6           0        3.166581   -2.124573   -0.947404
     45          1           0        3.028531   -2.664552   -1.874283
     46          8           0        3.823717   -0.888602   -1.225293
     47          6           0        4.094063   -2.902132   -0.008993
     48          1           0        3.547310   -3.444869    0.744807
     49          8           0        4.887473   -3.858340   -0.676239
     50          1           0        5.230651   -3.506435   -1.491412
     51          6           0        4.952434   -1.790372    0.594835
     52          1           0        4.418042   -1.324621    1.410606
     53          8           0        6.190098   -2.211408    1.091107
     54          1           0        6.527943   -2.886866    0.510768
     55          6           0        5.064407   -0.809536   -0.571349
     56          1           0        5.863952   -1.104552   -1.234204
     57          7           0        5.320697    0.559148   -0.201686
     58          6           0        4.533194    1.356729    0.587980
     59          1           0        3.634077    0.980096    1.028244
     60          7           0        4.974505    2.553465    0.725381
     61          6           0        6.139449    2.573053   -0.024630
     62          6           0        7.087129    3.567811   -0.285253
     63          7           0        6.977432    4.822139    0.188193
     64          1           0        6.366359    4.984218    0.958980
     65          1           0        7.792230    5.396131    0.148238
     66          7           0        8.121622    3.265960   -1.069502
     67          6           0        8.202949    2.038677   -1.567919
     68          1           0        9.056127    1.853850   -2.193489
     69          7           0        7.383822    1.026418   -1.395338
     70          6           0        6.358837    1.347275   -0.607990
 ---------------------------------------------------------------------
 Rotational constants (GHZ):      0.1030333      0.0302971      0.0252238
 Standard basis: 6-31G(d) (6D, 7F)
 There are   720 symmetry adapted cartesian basis functions of A   symmetry.
 There are   720 symmetry adapted basis functions of A   symmetry.
   720 basis functions,  1384 primitive gaussians,   720 cartesian basis functions
   172 alpha electrons      172 beta electrons
       nuclear repulsion energy      6043.9294130517 Hartrees.
 NAtoms=   70 NActive=   70 NUniq=   70 SFac= 1.00D+00 NAtFMM=   60 NAOKFM=T Big=T
 Integral buffers will be    131072 words long.
 Raffenetti 1 integral format.
 Two-electron integral symmetry is turned on.
 ------------------------------------------------------------------------------
 Polarizable Continuum Model (PCM)
 =================================
 Model                : PCM (using non-symmetric T matrix).
 Atomic radii         : SMD-Coulomb.
 Polarization charges : Total charges.
 Charge compensation  : None.
 Solution method      : On-the-fly selection.
 Cavity type          : VdW (van der Waals Surface) (Alpha=1.000).
 Cavity algorithm     : GePol (No added spheres)
                        Default sphere list used, NSphG=   70.
                        Lebedev-Laikov grids with approx.  5.0 points / Ang**2.
                        Smoothing algorithm: York/Karplus (Gamma=1.0000).
                        Polarization charges: spherical gaussians, with
                                              point-specific exponents (IZeta= 3).
                        Self-potential: point-specific (ISelfS= 7).
                        Self-field    : sphere-specific E.n sum rule (ISelfD= 2).
 1st derivatives      : Analytical E(r).r(x)/FMM algorithm (CHGder, D1EAlg=3).
                        Cavity 1st derivative terms included.
 Solvent              : Water, Eps=  78.355300 Eps(inf)=   1.777849
 ------------------------------------------------------------------------------
 ------------------------------------------------------------------------------
 Atomic radii for non-electrostatic terms: SMD-CDS.
 ------------------------------------------------------------------------------
 Nuclear repulsion after PCM non-electrostatic terms =     6043.9475652544 Hartrees.
 One-electron integrals computed using PRISM.
 NBasis=   720 RedAO= T EigKep=  6.85D-04  NBF=   720
 NBsUse=   720 1.00D-06 EigRej= -1.00D+00 NBFU=   720
 ExpMin= 9.98D-02 ExpMax= 1.94D+04 ExpMxC= 2.91D+03 IAcc=2 IRadAn=         4 AccDes= 0.00D+00
 Harris functional with IExCor=  205 and IRadAn=       4 diagonalized for initial guess.
 HarFok:  IExCor=  205 AccDes= 0.00D+00 IRadAn=         4 IDoV= 1 UseB2=F ITyADJ=14
 ICtDFT=  3500011 ScaDFX=  1.000000  1.000000  1.000000  1.000000
 FoFCou: FMM=F IPFlag=           0 FMFlag=      100000 FMFlg1=        2001
         NFxFlg=           0 DoJE=T BraDBF=F KetDBF=T FulRan=T
         wScrn=  0.000000 ICntrl=     500 IOpCl=  0 I1Cent=   200000004 NGrid=           0
         NMat0=    1 NMatS0=      1 NMatT0=    0 NMatD0=    1 NMtDS0=    0 NMtDT0=    0
 Petite list used in FoFCou.
 Requested convergence on RMS density matrix=1.00D-08 within 128 cycles.
 Requested convergence on MAX density matrix=1.00D-06.
 Requested convergence on             energy=1.00D-06.
 No special actions if energy rises.
 Inv3:  Mode=1 IEnd=    76053675.
 Iteration    1 A*A^-1 deviation from unit magnitude is 1.10D-14 for   5032.
 Iteration    1 A*A^-1 deviation from orthogonality  is 5.44D-15 for   5012   1898.
 Iteration    1 A^-1*A deviation from unit magnitude is 1.09D-14 for   5032.
 Iteration    1 A^-1*A deviation from orthogonality  is 2.29D-10 for   2870   2860.
 Iteration    2 A*A^-1 deviation from unit magnitude is 3.55D-15 for    191.
 Iteration    2 A*A^-1 deviation from orthogonality  is 6.10D-15 for   4999   2540.
 Iteration    2 A^-1*A deviation from unit magnitude is 1.11D-15 for   2816.
 Iteration    2 A^-1*A deviation from orthogonality  is 6.31D-16 for   5024   1896.
 Error on total polarization charges =  0.05340
 SCF Done:  E(RHF) =  -2921.41876567     A.U. after   15 cycles
            NFock= 15  Conv=0.91D-08     -V/T= 2.0019
 SMD-CDS (non-electrostatic) energy       (kcal/mol) =      11.39
 (included in total energy above)

 **********************************************************************

            Population analysis using the SCF density.

 **********************************************************************

 Orbital symmetries:
       Occupied  (A) (A) (A) (A) (A) (A) (A) (A) (A) (A) (A) (A)
                 (A) (A) (A) (A) (A) (A) (A) (A) (A) (A) (A) (A)
                 (A) (A) (A) (A) (A) (A) (A) (A) (A) (A) (A) (A)
                 (A) (A) (A) (A) (A) (A) (A) (A) (A) (A) (A) (A)
                 (A) (A) (A) (A) (A) (A) (A) (A) (A) (A) (A) (A)
                 (A) (A) (A) (A) (A) (A) (A) (A) (A) (A) (A) (A)
                 (A) (A) (A) (A) (A) (A) (A) (A) (A) (A) (A) (A)
                 (A) (A) (A) (A) (A) (A) (A) (A) (A) (A) (A) (A)
                 (A) (A) (A) (A) (A) (A) (A) (A) (A) (A) (A) (A)
                 (A) (A) (A) (A) (A) (A) (A) (A) (A) (A) (A) (A)
                 (A) (A) (A) (A) (A) (A) (A) (A) (A) (A) (A) (A)
                 (A) (A) (A) (A) (A) (A) (A) (A) (A) (A) (A) (A)
                 (A) (A) (A) (A) (A) (A) (A) (A) (A) (A) (A) (A)
                 (A) (A) (A) (A) (A) (A) (A) (A) (A) (A) (A) (A)
                 (A) (A) (A) (A)
       Virtual   (A) (A) (A) (A) (A) (A) (A) (A) (A) (A) (A) (A)
                 (A) (A) (A) (A) (A) (A) (A) (A) (A) (A) (A) (A)
                 (A) (A) (A) (A) (A) (A) (A) (A) (A) (A) (A) (A)
                 (A) (A) (A) (A) (A) (A) (A) (A) (A) (A) (A) (A)
                 (A) (A) (A) (A) (A) (A) (A) (A) (A) (A) (A) (A)
                 (A) (A) (A) (A) (A) (A) (A) (A) (A) (A) (A) (A)
                 (A) (A) (A) (A) (A) (A) (A) (A) (A) (A) (A) (A)
                 (A) (A) (A) (A) (A) (A) (A) (A) (A) (A) (A) (A)
                 (A) (A) (A) (A) (A) (A) (A) (A) (A) (A) (A) (A)
                 (A) (A) (A) (A) (A) (A) (A) (A) (A) (A) (A) (A)
                 (A) (A) (A) (A) (A) (A) (A) (A) (A) (A) (A) (A)
                 (A) (A) (A) (A) (A) (A) (A) (A) (A) (A) (A) (A)
                 (A) (A) (A) (A) (A) (A) (A) (A) (A) (A) (A) (A)
                 (A) (A) (A) (A) (A) (A) (A) (A) (A) (A) (A) (A)
                 (A) (A) (A) (A) (A) (A) (A) (A) (A) (A) (A) (A)
                 (A) (A) (A) (A) (A) (A) (A) (A) (A) (A) (A) (A)
                 (A) (A) (A) (A) (A) (A) (A) (A) (A) (A) (A) (A)
                 (A) (A) (A) (A) (A) (A) (A) (A) (A) (A) (A) (A)
                 (A) (A) (A) (A) (A) (A) (A) (A) (A) (A) (A) (A)
                 (A) (A) (A) (A) (A) (A) (A) (A) (A) (A) (A) (A)
                 (A) (A) (A) (A) (A) (A) (A) (A) (A) (A) (A) (A)
                 (A) (A) (A) (A) (A) (A) (A) (A) (A) (A) (A) (A)
                 (A) (A) (A) (A) (A) (A) (A) (A) (A) (A) (A) (A)
                 (A) (A) (A) (A) (A) (A) (A) (A) (A) (A) (A) (A)
                 (A) (A) (A) (A) (A) (A) (A) (A) (A) (A) (A) (A)
                 (A) (A) (A) (A) (A) (A) (A) (A) (A) (A) (A) (A)
                 (A) (A) (A) (A) (A) (A) (A) (A) (A) (A) (A) (A)
                 (A) (A) (A) (A) (A) (A) (A) (A) (A) (A) (A) (A)
                 (A) (A) (A) (A) (A) (A) (A) (A) (A) (A) (A) (A)
                 (A) (A) (A) (A) (A) (A) (A) (A) (A) (A) (A) (A)
                 (A) (A) (A) (A) (A) (A) (A) (A) (A) (A) (A) (A)
                 (A) (A) (A) (A) (A) (A) (A) (A) (A) (A) (A) (A)
                 (A) (A) (A) (A) (A) (A) (A) (A) (A) (A) (A) (A)
                 (A) (A) (A) (A) (A) (A) (A) (A) (A) (A) (A) (A)
                 (A) (A) (A) (A) (A) (A) (A) (A) (A) (A) (A) (A)
                 (A) (A) (A) (A) (A) (A) (A) (A) (A) (A) (A) (A)
                 (A) (A) (A) (A) (A) (A) (A) (A) (A) (A) (A) (A)
                 (A) (A) (A) (A) (A) (A) (A) (A) (A) (A) (A) (A)
                 (A) (A) (A) (A) (A) (A) (A) (A) (A) (A) (A) (A)
                 (A) (A) (A) (A) (A) (A) (A) (A) (A) (A) (A) (A)
                 (A) (A) (A) (A) (A) (A) (A) (A) (A) (A) (A) (A)
                 (A) (A) (A) (A) (A) (A) (A) (A) (A) (A) (A) (A)
                 (A) (A) (A) (A) (A) (A) (A) (A) (A) (A) (A) (A)
                 (A) (A) (A) (A) (A) (A) (A) (A) (A) (A) (A) (A)
                 (A) (A) (A) (A) (A) (A) (A) (A) (A) (A) (A) (A)
                 (A) (A) (A) (A) (A) (A) (A) (A)
 The electronic state is 1-A.
 Alpha  occ. eigenvalues --  -80.07474 -80.07347 -20.59058 -20.58309 -20.58102
 Alpha  occ. eigenvalues --  -20.58047 -20.57827 -20.57662 -20.57466 -20.57207
 Alpha  occ. eigenvalues --  -20.57176 -20.54120 -20.50306 -20.50201 -20.50139
 Alpha  occ. eigenvalues --  -20.50097 -15.69489 -15.62784 -15.58401 -15.57571
 Alpha  occ. eigenvalues --  -15.56571 -15.56144 -15.55429 -11.37876 -11.34455
 Alpha  occ. eigenvalues --  -11.34450 -11.34400 -11.33688 -11.33667 -11.33005
 Alpha  occ. eigenvalues --  -11.31501 -11.31027 -11.30945 -11.29534 -11.29290
 Alpha  occ. eigenvalues --  -11.28928 -11.28853 -11.28546 -11.28426 -11.28364
 Alpha  occ. eigenvalues --  -11.28192 -11.28034 -11.27945 -11.24846  -7.59713
 Alpha  occ. eigenvalues --   -7.59580  -5.49604  -5.49558  -5.49485  -5.49476
 Alpha  occ. eigenvalues --   -5.49407  -5.49348  -1.44101  -1.43366  -1.42784
 Alpha  occ. eigenvalues --   -1.40540  -1.40189  -1.38832  -1.38785  -1.37423
 Alpha  occ. eigenvalues --   -1.36905  -1.36411  -1.36100  -1.34264  -1.31150
 Alpha  occ. eigenvalues --   -1.30980  -1.29158  -1.26424  -1.26283  -1.25329
 Alpha  occ. eigenvalues --   -1.22003  -1.20134  -1.16104  -1.14285  -1.10546
 Alpha  occ. eigenvalues --   -1.05780  -1.05513  -1.04735  -1.04166  -1.02650
 Alpha  occ. eigenvalues --   -0.96091  -0.93832  -0.93362  -0.90849  -0.89553
 Alpha  occ. eigenvalues --   -0.88121  -0.86240  -0.84920  -0.83744  -0.83024
 Alpha  occ. eigenvalues --   -0.82685  -0.81949  -0.79782  -0.77787  -0.77177
 Alpha  occ. eigenvalues --   -0.75488  -0.74548  -0.74296  -0.73648  -0.72696
 Alpha  occ. eigenvalues --   -0.72217  -0.71461  -0.70940  -0.70687  -0.69642
 Alpha  occ. eigenvalues --   -0.68525  -0.68188  -0.67927  -0.67314  -0.66853
 Alpha  occ. eigenvalues --   -0.66289  -0.65727  -0.65619  -0.64882  -0.64344
 Alpha  occ. eigenvalues --   -0.63702  -0.63562  -0.63233  -0.63010  -0.62469
 Alpha  occ. eigenvalues --   -0.62055  -0.61753  -0.61232  -0.60903  -0.60662
 Alpha  occ. eigenvalues --   -0.60179  -0.59989  -0.59419  -0.59180  -0.58410
 Alpha  occ. eigenvalues --   -0.57973  -0.57746  -0.57242  -0.56778  -0.55888
 Alpha  occ. eigenvalues --   -0.55570  -0.55293  -0.53954  -0.53877  -0.53007
 Alpha  occ. eigenvalues --   -0.52598  -0.52351  -0.51096  -0.50881  -0.50213
 Alpha  occ. eigenvalues --   -0.49965  -0.49313  -0.49218  -0.48995  -0.48490
 Alpha  occ. eigenvalues --   -0.48059  -0.47399  -0.46687  -0.46241  -0.45686
 Alpha  occ. eigenvalues --   -0.45465  -0.45218  -0.44500  -0.44277  -0.43953
 Alpha  occ. eigenvalues --   -0.43731  -0.43347  -0.43194  -0.42885  -0.42368
 Alpha  occ. eigenvalues --   -0.41978  -0.41423  -0.40567  -0.40209  -0.40134
 Alpha  occ. eigenvalues --   -0.36846  -0.31253
 Alpha virt. eigenvalues --   -0.00765   0.09039   0.13125   0.15661   0.20353
 Alpha virt. eigenvalues --    0.20438   0.21730   0.22443   0.22855   0.23220
 Alpha virt. eigenvalues --    0.23383   0.24761   0.25052   0.25766   0.25907
 Alpha virt. eigenvalues --    0.26433   0.27208   0.27579   0.27951   0.29094
 Alpha virt. eigenvalues --    0.29414   0.29904   0.30361   0.30518   0.30900
 Alpha virt. eigenvalues --    0.31411   0.31619   0.31812   0.32098   0.32313
 Alpha virt. eigenvalues --    0.33131   0.33304   0.33622   0.34314   0.34539
 Alpha virt. eigenvalues --    0.35079   0.35578   0.36552   0.36778   0.37360
 Alpha virt. eigenvalues --    0.37563   0.38133   0.38542   0.38673   0.38888
 Alpha virt. eigenvalues --    0.39675   0.40088   0.40681   0.41132   0.41358
 Alpha virt. eigenvalues --    0.41759   0.42024   0.43005   0.43555   0.44034
 Alpha virt. eigenvalues --    0.44645   0.44921   0.46072   0.46243   0.47076
 Alpha virt. eigenvalues --    0.47511   0.48177   0.48905   0.49801   0.50072
 Alpha virt. eigenvalues --    0.50640   0.51358   0.51777   0.52384   0.52657
 Alpha virt. eigenvalues --    0.53366   0.53639   0.54422   0.54804   0.55910
 Alpha virt. eigenvalues --    0.56041   0.58094   0.58630   0.59097   0.59683
 Alpha virt. eigenvalues --    0.60019   0.61237   0.61461   0.61842   0.63877
 Alpha virt. eigenvalues --    0.64910   0.65426   0.66156   0.67863   0.68954
 Alpha virt. eigenvalues --    0.70256   0.70815   0.72345   0.73389   0.73905
 Alpha virt. eigenvalues --    0.74228   0.75226   0.75432   0.75755   0.76452
 Alpha virt. eigenvalues --    0.77083   0.77667   0.78627   0.79399   0.79824
 Alpha virt. eigenvalues --    0.80122   0.80353   0.81050   0.81180   0.81423
 Alpha virt. eigenvalues --    0.81595   0.82229   0.82714   0.83411   0.83714
 Alpha virt. eigenvalues --    0.83985   0.84590   0.85556   0.85803   0.85876
 Alpha virt. eigenvalues --    0.86807   0.87374   0.87935   0.88138   0.88658
 Alpha virt. eigenvalues --    0.89119   0.89698   0.89909   0.90298   0.91363
 Alpha virt. eigenvalues --    0.91774   0.92219   0.92996   0.93261   0.93718
 Alpha virt. eigenvalues --    0.94060   0.94247   0.94693   0.94888   0.95875
 Alpha virt. eigenvalues --    0.96623   0.96862   0.97491   0.97659   0.99042
 Alpha virt. eigenvalues --    0.99288   0.99524   0.99918   1.00154   1.00934
 Alpha virt. eigenvalues --    1.01726   1.02666   1.03199   1.03687   1.04313
 Alpha virt. eigenvalues --    1.04542   1.04736   1.05516   1.06397   1.06721
 Alpha virt. eigenvalues --    1.06856   1.07202   1.08021   1.08323   1.08616
 Alpha virt. eigenvalues --    1.08986   1.09191   1.09750   1.10344   1.10912
 Alpha virt. eigenvalues --    1.11192   1.11489   1.11689   1.11960   1.12630
 Alpha virt. eigenvalues --    1.13012   1.13718   1.14265   1.14412   1.14786
 Alpha virt. eigenvalues --    1.15670   1.15966   1.16429   1.16830   1.17144
 Alpha virt. eigenvalues --    1.17632   1.18007   1.18554   1.18896   1.19271
 Alpha virt. eigenvalues --    1.19993   1.20125   1.20716   1.21253   1.21817
 Alpha virt. eigenvalues --    1.22520   1.22760   1.23421   1.23957   1.24407
 Alpha virt. eigenvalues --    1.24777   1.25196   1.25599   1.25821   1.26916
 Alpha virt. eigenvalues --    1.27556   1.28169   1.28456   1.28501   1.28789
 Alpha virt. eigenvalues --    1.29653   1.30207   1.30569   1.30733   1.30935
 Alpha virt. eigenvalues --    1.31486   1.31859   1.32163   1.32433   1.33389
 Alpha virt. eigenvalues --    1.33605   1.33917   1.34338   1.34903   1.35485
 Alpha virt. eigenvalues --    1.35975   1.36178   1.36809   1.37866   1.38559
 Alpha virt. eigenvalues --    1.41019   1.41124   1.41731   1.41977   1.42328
 Alpha virt. eigenvalues --    1.43213   1.43413   1.43906   1.44540   1.44681
 Alpha virt. eigenvalues --    1.45819   1.46833   1.47240   1.48781   1.49483
 Alpha virt. eigenvalues --    1.49764   1.50367   1.50411   1.51180   1.52688
 Alpha virt. eigenvalues --    1.52878   1.53533   1.53947   1.54525   1.55156
 Alpha virt. eigenvalues --    1.55977   1.57251   1.58261   1.58541   1.59045
 Alpha virt. eigenvalues --    1.59615   1.59872   1.60056   1.61090   1.62176
 Alpha virt. eigenvalues --    1.62737   1.63206   1.64242   1.65162   1.65893
 Alpha virt. eigenvalues --    1.66049   1.67068   1.67930   1.68572   1.68902
 Alpha virt. eigenvalues --    1.69590   1.70938   1.71345   1.72526   1.72794
 Alpha virt. eigenvalues --    1.73972   1.74500   1.75591   1.75898   1.76650
 Alpha virt. eigenvalues --    1.77278   1.77336   1.77830   1.78874   1.79656
 Alpha virt. eigenvalues --    1.80820   1.81158   1.82273   1.82866   1.83078
 Alpha virt. eigenvalues --    1.84104   1.84702   1.85343   1.86665   1.87908
 Alpha virt. eigenvalues --    1.89807   1.89974   1.90303   1.90978   1.91694
 Alpha virt. eigenvalues --    1.92628   1.93011   1.93833   1.95289   1.95816
 Alpha virt. eigenvalues --    1.96682   1.96920   1.98144   1.99859   2.01104
 Alpha virt. eigenvalues --    2.01394   2.02736   2.03098   2.03178   2.03523
 Alpha virt. eigenvalues --    2.04187   2.05238   2.06157   2.06516   2.06931
 Alpha virt. eigenvalues --    2.07941   2.08205   2.08422   2.09049   2.09474
 Alpha virt. eigenvalues --    2.10102   2.10851   2.11051   2.11277   2.11485
 Alpha virt. eigenvalues --    2.11945   2.12511   2.13183   2.13443   2.13873
 Alpha virt. eigenvalues --    2.14178   2.14381   2.15172   2.15361   2.15620
 Alpha virt. eigenvalues --    2.15879   2.17366   2.17463   2.18076   2.18882
 Alpha virt. eigenvalues --    2.20347   2.20975   2.21325   2.22778   2.23458
 Alpha virt. eigenvalues --    2.24559   2.24852   2.25306   2.25419   2.26205
 Alpha virt. eigenvalues --    2.27236   2.28044   2.28290   2.29135   2.29377
 Alpha virt. eigenvalues --    2.29825   2.31368   2.31972   2.32793   2.33355
 Alpha virt. eigenvalues --    2.33571   2.34368   2.34637   2.34841   2.35961
 Alpha virt. eigenvalues --    2.37679   2.38762   2.39868   2.40522   2.41431
 Alpha virt. eigenvalues --    2.42297   2.42533   2.43217   2.43665   2.44117
 Alpha virt. eigenvalues --    2.44778   2.45371   2.45905   2.46708   2.47495
 Alpha virt. eigenvalues --    2.48432   2.48874   2.49487   2.50239   2.50755
 Alpha virt. eigenvalues --    2.51977   2.52259   2.52757   2.53291   2.54349
 Alpha virt. eigenvalues --    2.54648   2.55348   2.55537   2.55907   2.56523
 Alpha virt. eigenvalues --    2.57303   2.58469   2.59063   2.60115   2.60805
 Alpha virt. eigenvalues --    2.60870   2.61959   2.63482   2.64517   2.64645
 Alpha virt. eigenvalues --    2.65112   2.66061   2.67453   2.67636   2.68661
 Alpha virt. eigenvalues --    2.70038   2.70150   2.70380   2.71055   2.71900
 Alpha virt. eigenvalues --    2.72048   2.74329   2.75235   2.76088   2.76454
 Alpha virt. eigenvalues --    2.78926   2.79685   2.79707   2.80942   2.81141
 Alpha virt. eigenvalues --    2.81852   2.83114   2.83277   2.84559   2.85795
 Alpha virt. eigenvalues --    2.86027   2.86646   2.87295   2.88531   2.88944
 Alpha virt. eigenvalues --    2.89183   2.90319   2.91629   2.92201   2.92950
 Alpha virt. eigenvalues --    2.93876   2.94397   2.94929   2.95206   2.95837
 Alpha virt. eigenvalues --    2.97892   2.98750   2.98911   3.01643   3.01701
 Alpha virt. eigenvalues --    3.02113   3.02774   3.03371   3.04338   3.06301
 Alpha virt. eigenvalues --    3.07771   3.08128   3.08595   3.09887   3.10904
 Alpha virt. eigenvalues --    3.13073   3.13085   3.14118   3.14487   3.15710
 Alpha virt. eigenvalues --    3.16307   3.18656   3.19559   3.20581   3.21099
 Alpha virt. eigenvalues --    3.22152   3.22974   3.23111   3.24541   3.26534
 Alpha virt. eigenvalues --    3.29541   3.30157   3.30580   3.31382   3.32584
 Alpha virt. eigenvalues --    3.33360   3.33728   3.35786   3.37948   3.39521
 Alpha virt. eigenvalues --    3.41011   3.42616   3.44601   3.46421   3.54144
 Alpha virt. eigenvalues --    3.62701   3.69007   3.69089   3.87461   3.88270
 Alpha virt. eigenvalues --    3.90513   4.15080   4.17794   4.21478   4.24050
 Alpha virt. eigenvalues --    4.30341   4.30687   4.34839   4.36745   4.39039
 Alpha virt. eigenvalues --    4.39546   4.41741   4.44777   4.45394   4.47276
 Alpha virt. eigenvalues --    4.48899   4.49478   4.50422   4.53798   4.56945
 Alpha virt. eigenvalues --    4.57344   4.60220   4.63136   4.65676   4.67683
 Alpha virt. eigenvalues --    4.70032   4.71959   4.74110   4.75390   4.76302
 Alpha virt. eigenvalues --    4.81470   4.83462   4.90246   4.91376   4.92640
 Alpha virt. eigenvalues --    4.93482   4.96970   5.03259   5.09196   5.12015
 Alpha virt. eigenvalues --    5.12472   5.14376   5.17895
          Condensed to atoms (all electrons):
 Mulliken charges:
               1
     1  C    0.218935
     2  H    0.334190
     3  C   -0.303359
     4  H    0.293678
     5  C    0.014555
     6  H    0.326685
     7  C   -0.238143
     8  C    0.831011
     9  O   -0.736288
    10  N   -0.979791
    11  H    0.487681
    12  H    0.434145
    13  C    0.239191
    14  H    0.344553
    15  N   -0.675352
    16  C    0.356518
    17  H    0.258760
    18  C    0.128444
    19  H    0.239777
    20  O   -0.805836
    21  H    0.497536
    22  C    0.101969
    23  H    0.242094
    24  O   -0.818607
    25  H    0.493243
    26  C    0.133902
    27  H    0.227715
    28  O   -0.701424
    29  C   -0.021409
    30  H    0.206064
    31  H    0.207397
    32  O   -0.745551
    33  P    1.624701
    34  O   -0.906209
    35  O   -0.877324
    36  O   -0.867609
    37  P    1.603357
    38  O   -0.885425
    39  O   -0.881880
    40  O   -0.765385
    41  C   -0.018212
    42  H    0.201656
    43  H    0.207762
    44  C    0.136333
    45  H    0.222122
    46  O   -0.720072
    47  C    0.088002
    48  H    0.240472
    49  O   -0.825947
    50  H    0.498404
    51  C    0.128460
    52  H    0.235234
    53  O   -0.817258
    54  H    0.491624
    55  C    0.407967
    56  H    0.237081
    57  N   -0.779181
    58  C    0.320505
    59  H    0.285914
    60  N   -0.632634
    61  C    0.055981
    62  C    0.631520
    63  N   -0.927609
    64  H    0.429863
    65  H    0.422098
    66  N   -0.700238
    67  C    0.280145
    68  H    0.238512
    69  N   -0.677008
    70  C    0.701995
 Sum of Mulliken charges =  -1.00000
 Mulliken charges with hydrogens summed into heavy atoms:
               1
     1  C    0.553126
     3  C   -0.009682
     5  C    0.341241
     7  C   -0.238143
     8  C    0.831011
     9  O   -0.736288
    10  N   -0.057966
    13  C    0.583744
    15  N   -0.675352
    16  C    0.615278
    18  C    0.368221
    20  O   -0.308300
    22  C    0.344063
    24  O   -0.325364
    26  C    0.361616
    28  O   -0.701424
    29  C    0.392052
    32  O   -0.745551
    33  P    1.624701
    34  O   -0.906209
    35  O   -0.877324
    36  O   -0.867609
    37  P    1.603357
    38  O   -0.885425
    39  O   -0.881880
    40  O   -0.765385
    41  C    0.391206
    44  C    0.358455
    46  O   -0.720072
    47  C    0.328474
    49  O   -0.327543
    51  C    0.363694
    53  O   -0.325635
    55  C    0.645048
    57  N   -0.779181
    58  C    0.606419
    60  N   -0.632634
    61  C    0.055981
    62  C    0.631520
    63  N   -0.075648
    66  N   -0.700238
    67  C    0.518657
    69  N   -0.677008
    70  C    0.701995
 Electronic spatial extent (au):  <R**2>=          39427.7503
 Charge=             -1.0000 electrons
 Dipole moment (field-independent basis, Debye):
    X=            -14.7362    Y=             39.0044    Z=             -8.5252  Tot=             42.5579
 Quadrupole moment (field-independent basis, Debye-Ang):
   XX=           -200.5459   YY=           -344.3575   ZZ=           -295.2484
   XY=           -110.4698   XZ=             10.7895   YZ=             12.8172
 Traceless Quadrupole moment (field-independent basis, Debye-Ang):
   XX=             79.5047   YY=            -64.3069   ZZ=            -15.1978
   XY=           -110.4698   XZ=             10.7895   YZ=             12.8172
 Octapole moment (field-independent basis, Debye-Ang**2):
  XXX=           -822.9385  YYY=            602.6042  ZZZ=            -60.7650  XYY=            -85.7449
  XXY=            661.8542  XXZ=            -75.7667  XZZ=            -55.6699  YZZ=             36.3505
  YYZ=           -127.8599  XYZ=            232.8860
 Hexadecapole moment (field-independent basis, Debye-Ang**3):
 XXXX=         -38503.2146 YYYY=         -11005.7106 ZZZZ=          -2219.3913 XXXY=          -5102.3078
 XXXZ=            522.2678 YYYX=           -388.1246 YYYZ=            362.1760 ZZZX=             24.5888
 ZZZY=             44.3083 XXYY=          -6872.6841 XXZZ=          -6669.1622 YYZZ=          -2373.8158
 XXYZ=           -101.0778 YYXZ=            473.6091 ZZXY=           -218.1247
 N-N= 6.043947565254D+03 E-N=-1.901072667227D+04  KE= 2.916002986403D+03
 D1PCM: PCM CHGder 1st derivatives, ID1Alg=3 FixD1E=F DoIter=F DoCFld=F I1PDM=0.
 Calling FoFJK, ICntrl=      2127 FMM=T ISym2X=0 I1Cent= 0 IOpClX= 0 NMat=1 NMatS=1 NMatT=0.
 ***** Axes restored to original set *****
 -------------------------------------------------------------------
 Center     Atomic                   Forces (Hartrees/Bohr)
 Number     Number              X              Y              Z
 -------------------------------------------------------------------
      1        6           0.058186929   -0.004440222    0.065816527
      2        1           0.001039334   -0.001382070   -0.002706482
      3        6          -0.084112887   -0.072905785   -0.016493291
      4        1           0.003476165   -0.002429132   -0.002581323
      5        6           0.167984457    0.043314821   -0.010156741
      6        1          -0.049696064   -0.008575345    0.015672122
      7        6          -0.089166477    0.020958515   -0.031603904
      8        6          -0.008131262   -0.033120357   -0.006595017
      9        8           0.008198243    0.010725516    0.004507995
     10        7          -0.003051607    0.012366299   -0.003071693
     11        1           0.001903543   -0.001071437    0.000948451
     12        1          -0.000871059   -0.000513753   -0.000308773
     13        6           0.028764155    0.047750281    0.035489111
     14        1           0.000949918    0.000522093   -0.002692768
     15        7          -0.044333944   -0.022945230   -0.060045712
     16        6           0.029358729    0.013282900    0.010433655
     17        1          -0.001925327   -0.001641684   -0.000805327
     18        6          -0.004209601    0.000335967    0.006114712
     19        1           0.000277211    0.000054151    0.000050787
     20        8           0.001193016   -0.001216104   -0.002741707
     21        1          -0.000360342   -0.000044227    0.000939139
     22        6           0.001135121    0.002348284   -0.001701215
     23        1          -0.001077758   -0.000172682   -0.000185870
     24        8          -0.001028376   -0.001777995   -0.000425979
     25        1           0.000277043    0.000441188    0.000028061
     26        6           0.003958790   -0.000803584    0.003765102
     27        1          -0.001258834   -0.000099361   -0.000420779
     28        8          -0.015912060    0.000605737   -0.000462998
     29        6          -0.000667124   -0.000992432   -0.000446593
     30        1           0.000012751    0.000099692    0.000039009
     31        1          -0.000241141    0.000511283   -0.000012958
     32        8          -0.000214316    0.001015551   -0.000021639
     33       15           0.000747796   -0.001023154   -0.000147150
     34        8          -0.000192996    0.000246475    0.000191188
     35        8          -0.000649269    0.000367381   -0.000190056
     36        8          -0.000462921    0.000338788   -0.000160643
     37       15           0.000294487   -0.000316245    0.000043670
     38        8          -0.000084039    0.000055379   -0.000047676
     39        8          -0.000052090    0.000085262   -0.000008072
     40        8          -0.000101601    0.000048393    0.000013729
     41        6           0.000054533   -0.000010945    0.000018115
     42        1          -0.000000059   -0.000002446   -0.000001162
     43        1          -0.000005346    0.000005031   -0.000009777
     44        6           0.000020936   -0.000015741    0.000004847
     45        1          -0.000000014   -0.000004791    0.000000655
     46        8          -0.000055239    0.000003353   -0.000008668
     47        6           0.000009235   -0.000004544   -0.000012811
     48        1          -0.000002938    0.000001963    0.000003515
     49        8          -0.000017949    0.000005183    0.000004600
     50        1           0.000008697    0.000035556    0.000001569
     51        6           0.000020782    0.000000975    0.000019305
     52        1           0.000006038    0.000007158    0.000000171
     53        8          -0.000037079    0.000006161   -0.000001926
     54        1           0.000006225    0.000003694   -0.000007052
     55        6           0.000059480   -0.000023836    0.000001992
     56        1          -0.000001675   -0.000003665    0.000005333
     57        7          -0.000025621   -0.000006868   -0.000008839
     58        6           0.000009228    0.000000303    0.000002445
     59        1           0.000003489   -0.000009477    0.000003803
     60        7          -0.000020338    0.000000674   -0.000007027
     61        6          -0.000003756   -0.000009420   -0.000008241
     62        6           0.000016585    0.000023151    0.000003517
     63        7          -0.000012316   -0.000007512   -0.000011420
     64        1           0.000007071   -0.000003322    0.000002442
     65        1           0.000007273    0.000003720   -0.000006356
     66        7          -0.000013614   -0.000004690   -0.000003372
     67        6           0.000011761    0.000008244   -0.000008371
     68        1          -0.000000016   -0.000002207    0.000001587
     69        7          -0.000025596   -0.000006523   -0.000000103
     70        6           0.000023627    0.000007661    0.000002335
 -------------------------------------------------------------------
 Cartesian Forces:  Max     0.167984457 RMS     0.019073698

 GradGradGradGradGradGradGradGradGradGradGradGradGradGradGradGradGradGrad
 Berny optimization.
 FormGI is forming the generalized inverse of G from B-inverse, IUseBI=4.
 Internal  Forces:  Max     0.072899321 RMS     0.007701530
 Search for a local minimum.
 Step number   1 out of a maximum of  403
 All quantities printed in internal units (Hartrees-Bohrs-Radians)
 Mixed Optimization -- RFO/linear search
 Second derivative matrix not updated -- first step.
 ITU=  0
     Eigenvalues ---    0.00467   0.00528   0.00540   0.00614   0.00915
     Eigenvalues ---    0.00955   0.00957   0.01032   0.01153   0.01218
     Eigenvalues ---    0.01455   0.01460   0.01539   0.01555   0.01578
     Eigenvalues ---    0.01663   0.01694   0.01714   0.01765   0.01796
     Eigenvalues ---    0.01860   0.02143   0.02148   0.02234   0.02245
     Eigenvalues ---    0.02276   0.02327   0.02368   0.02417   0.02489
     Eigenvalues ---    0.02497   0.02529   0.02561   0.02580   0.02652
     Eigenvalues ---    0.02704   0.02749   0.03084   0.03108   0.03142
     Eigenvalues ---    0.03147   0.03355   0.03421   0.03604   0.03619
     Eigenvalues ---    0.03736   0.03747   0.04278   0.04328   0.04916
     Eigenvalues ---    0.05023   0.05130   0.05185   0.05303   0.05412
     Eigenvalues ---    0.05428   0.05446   0.05532   0.05543   0.05957
     Eigenvalues ---    0.05981   0.06051   0.06055   0.06283   0.06297
     Eigenvalues ---    0.06390   0.06583   0.07803   0.07840   0.08554
     Eigenvalues ---    0.08612   0.10250   0.10266   0.10367   0.11181
     Eigenvalues ---    0.11205   0.13391   0.13394   0.13643   0.13676
     Eigenvalues ---    0.15613   0.15659   0.15742   0.15934   0.15997
     Eigenvalues ---    0.15999   0.15999   0.16000   0.16000   0.16000
     Eigenvalues ---    0.16000   0.16000   0.16000   0.16000   0.16000
     Eigenvalues ---    0.16000   0.16000   0.16080   0.16295   0.16820
     Eigenvalues ---    0.16868   0.17083   0.17371   0.18374   0.18730
     Eigenvalues ---    0.20215   0.20352   0.21326   0.21667   0.22015
     Eigenvalues ---    0.22044   0.22072   0.22877   0.23084   0.23148
     Eigenvalues ---    0.23606   0.23839   0.24953   0.24986   0.24988
     Eigenvalues ---    0.24996   0.24998   0.24999   0.25000   0.25000
     Eigenvalues ---    0.25000   0.25000   0.25000   0.25000   0.25000
     Eigenvalues ---    0.26395   0.26579   0.28412   0.28461   0.28766
     Eigenvalues ---    0.28970   0.30241   0.30558   0.31192   0.31203
     Eigenvalues ---    0.34581   0.35177   0.35622   0.35680   0.35808
     Eigenvalues ---    0.35828   0.35862   0.35874   0.35887   0.35906
     Eigenvalues ---    0.35931   0.36034   0.36173   0.36258   0.36595
     Eigenvalues ---    0.36733   0.36923   0.37278   0.37287   0.39407
     Eigenvalues ---    0.39489   0.39944   0.40168   0.41287   0.41649
     Eigenvalues ---    0.42535   0.42783   0.42838   0.43403   0.43949
     Eigenvalues ---    0.44224   0.44529   0.45265   0.45450   0.45896
     Eigenvalues ---    0.46702   0.47456   0.47861   0.48135   0.48200
     Eigenvalues ---    0.48239   0.48244   0.49792   0.50379   0.50473
     Eigenvalues ---    0.51335   0.55349   0.55451   0.56059   0.57128
     Eigenvalues ---    0.57253   0.57261   0.57393   0.57550   0.58171
     Eigenvalues ---    0.58984   0.60891   0.62218   0.68634   0.82923
     Eigenvalues ---    0.82982   0.83087   0.83519   0.92152
 RFO step:  Lambda=-8.09209692D-02 EMin= 4.67072577D-03
 Linear search not attempted -- first point.
 Maximum step size (   0.300) exceeded in Quadratic search.
[...]
                 (A) (A) (A) (A) (A) (A) (A) (A) (A) (A) (A) (A)
                 (A) (A) (A) (A) (A) (A) (A) (A) (A) (A) (A) (A)
                 (A) (A) (A) (A) (A) (A) (A) (A) (A) (A) (A) (A)
                 (A) (A) (A) (A) (A) (A) (A) (A) (A) (A) (A) (A)
                 (A) (A) (A) (A) (A) (A) (A) (A) (A) (A) (A) (A)
                 (A) (A) (A) (A) (A) (A) (A) (A) (A) (A) (A) (A)
                 (A) (A) (A) (A) (A) (A) (A) (A)
 The electronic state is 1-A.
 Alpha  occ. eigenvalues --  -80.07557 -80.07383 -20.59612 -20.58281 -20.58190
 Alpha  occ. eigenvalues --  -20.58091 -20.57878 -20.57843 -20.57485 -20.57264
 Alpha  occ. eigenvalues --  -20.57214 -20.54147 -20.50390 -20.50261 -20.50173
 Alpha  occ. eigenvalues --  -20.50118 -15.69536 -15.62783 -15.58382 -15.57576
 Alpha  occ. eigenvalues --  -15.56590 -15.56146 -15.55433 -11.37651 -11.34812
 Alpha  occ. eigenvalues --  -11.33673 -11.33450 -11.33244 -11.33011 -11.31497
 Alpha  occ. eigenvalues --  -11.31049 -11.30952 -11.29600 -11.29355 -11.29199
 Alpha  occ. eigenvalues --  -11.29046 -11.28550 -11.28459 -11.28395 -11.28323
 Alpha  occ. eigenvalues --  -11.28033 -11.28015 -11.26550 -11.24850  -7.59794
 Alpha  occ. eigenvalues --   -7.59615  -5.49683  -5.49640  -5.49557  -5.49520
 Alpha  occ. eigenvalues --   -5.49442  -5.49383  -1.44619  -1.43799  -1.42796
 Alpha  occ. eigenvalues --   -1.40652  -1.40601  -1.39116  -1.38841  -1.37423
 Alpha  occ. eigenvalues --   -1.37277  -1.36426  -1.36292  -1.35885  -1.31157
 Alpha  occ. eigenvalues --   -1.31050  -1.29214  -1.26515  -1.26329  -1.25338
 Alpha  occ. eigenvalues --   -1.22437  -1.20139  -1.16108  -1.15397  -1.09898
 Alpha  occ. eigenvalues --   -1.06273  -1.05544  -1.04743  -1.04647  -1.02647
 Alpha  occ. eigenvalues --   -0.95847  -0.94316  -0.93844  -0.90147  -0.89553
 Alpha  occ. eigenvalues --   -0.88123  -0.86251  -0.85238  -0.84137  -0.83036
 Alpha  occ. eigenvalues --   -0.82571  -0.81995  -0.79790  -0.78208  -0.77187
 Alpha  occ. eigenvalues --   -0.75736  -0.74685  -0.74300  -0.73971  -0.72965
 Alpha  occ. eigenvalues --   -0.72531  -0.71949  -0.70819  -0.70679  -0.69579
 Alpha  occ. eigenvalues --   -0.68508  -0.68134  -0.67948  -0.67784  -0.66882
 Alpha  occ. eigenvalues --   -0.66480  -0.66199  -0.65654  -0.65274  -0.64924
 Alpha  occ. eigenvalues --   -0.64208  -0.63415  -0.63133  -0.62980  -0.62557
 Alpha  occ. eigenvalues --   -0.62115  -0.61949  -0.61292  -0.61138  -0.60764
 Alpha  occ. eigenvalues --   -0.60142  -0.60011  -0.59350  -0.59203  -0.59066
 Alpha  occ. eigenvalues --   -0.58398  -0.57855  -0.57046  -0.56702  -0.56111
 Alpha  occ. eigenvalues --   -0.55719  -0.55548  -0.55294  -0.54046  -0.53266
 Alpha  occ. eigenvalues --   -0.52621  -0.52300  -0.51079  -0.51071  -0.50218
 Alpha  occ. eigenvalues --   -0.49939  -0.49451  -0.49323  -0.49007  -0.48491
 Alpha  occ. eigenvalues --   -0.48104  -0.47499  -0.46988  -0.46278  -0.45782
 Alpha  occ. eigenvalues --   -0.45476  -0.45219  -0.44912  -0.44528  -0.44270
 Alpha  occ. eigenvalues --   -0.43771  -0.43694  -0.43232  -0.42958  -0.42441
 Alpha  occ. eigenvalues --   -0.42042  -0.41436  -0.41249  -0.40592  -0.38724
 Alpha  occ. eigenvalues --   -0.36886  -0.31261
 Alpha virt. eigenvalues --    0.05783   0.08686   0.13125   0.15649   0.20363
 Alpha virt. eigenvalues --    0.21140   0.21861   0.22399   0.23036   0.23429
 Alpha virt. eigenvalues --    0.23949   0.24319   0.25042   0.25786   0.26263
 Alpha virt. eigenvalues --    0.26430   0.27204   0.28225   0.28914   0.29598
 Alpha virt. eigenvalues --    0.29695   0.29897   0.30458   0.31078   0.31511
 Alpha virt. eigenvalues --    0.31667   0.31828   0.32018   0.32267   0.32637
 Alpha virt. eigenvalues --    0.32947   0.33639   0.34197   0.34295   0.34681
 Alpha virt. eigenvalues --    0.35401   0.36472   0.36583   0.36892   0.37396
 Alpha virt. eigenvalues --    0.37922   0.38256   0.38675   0.39616   0.39648
 Alpha virt. eigenvalues --    0.40001   0.40846   0.41237   0.41338   0.41888
 Alpha virt. eigenvalues --    0.42320   0.42439   0.43210   0.43614   0.44186
 Alpha virt. eigenvalues --    0.44935   0.45411   0.46033   0.46193   0.47133
 Alpha virt. eigenvalues --    0.47563   0.47846   0.48500   0.48883   0.49623
 Alpha virt. eigenvalues --    0.50035   0.51036   0.51648   0.52324   0.53140
 Alpha virt. eigenvalues --    0.53625   0.53846   0.54355   0.54792   0.55387
 Alpha virt. eigenvalues --    0.56194   0.58124   0.59034   0.59426   0.60067
 Alpha virt. eigenvalues --    0.61167   0.61454   0.62727   0.63661   0.63936
 Alpha virt. eigenvalues --    0.65269   0.65523   0.66785   0.67840   0.70010
 Alpha virt. eigenvalues --    0.71230   0.72304   0.73401   0.73907   0.73935
 Alpha virt. eigenvalues --    0.75069   0.75524   0.75784   0.76729   0.77124
 Alpha virt. eigenvalues --    0.77607   0.78152   0.78599   0.79393   0.79812
 Alpha virt. eigenvalues --    0.80320   0.80603   0.81075   0.81226   0.81386
 Alpha virt. eigenvalues --    0.82061   0.82221   0.82643   0.83391   0.83614
 Alpha virt. eigenvalues --    0.83971   0.84305   0.84833   0.85862   0.86088
 Alpha virt. eigenvalues --    0.87311   0.87534   0.87849   0.87990   0.88706
 Alpha virt. eigenvalues --    0.89431   0.89639   0.90760   0.91249   0.91546
 Alpha virt. eigenvalues --    0.92298   0.92761   0.93070   0.93667   0.94055
 Alpha virt. eigenvalues --    0.94150   0.94278   0.94774   0.95633   0.95906
 Alpha virt. eigenvalues --    0.96785   0.97051   0.97656   0.97842   0.98913
 Alpha virt. eigenvalues --    0.99250   0.99729   1.00116   1.00874   1.01047
 Alpha virt. eigenvalues --    1.02347   1.02722   1.03296   1.03482   1.03806
 Alpha virt. eigenvalues --    1.04504   1.04991   1.05628   1.06771   1.06886
 Alpha virt. eigenvalues --    1.07288   1.07669   1.08114   1.08310   1.09088
 Alpha virt. eigenvalues --    1.09254   1.09644   1.10200   1.10559   1.11102
 Alpha virt. eigenvalues --    1.11581   1.11891   1.12034   1.12629   1.13296
 Alpha virt. eigenvalues --    1.14033   1.14220   1.14402   1.15650   1.15872
 Alpha virt. eigenvalues --    1.16120   1.16359   1.16980   1.17106   1.17459
 Alpha virt. eigenvalues --    1.17971   1.18471   1.18619   1.19127   1.19958
 Alpha virt. eigenvalues --    1.20134   1.20716   1.21009   1.21271   1.21874
 Alpha virt. eigenvalues --    1.22737   1.23167   1.23501   1.23835   1.24370
 Alpha virt. eigenvalues --    1.24866   1.25019   1.25322   1.26132   1.26572
 Alpha virt. eigenvalues --    1.27262   1.27405   1.28180   1.28680   1.28721
 Alpha virt. eigenvalues --    1.30080   1.30317   1.30617   1.31026   1.31185
 Alpha virt. eigenvalues --    1.31289   1.32126   1.32487   1.32831   1.33398
 Alpha virt. eigenvalues --    1.34139   1.34660   1.35071   1.35413   1.36089
 Alpha virt. eigenvalues --    1.36542   1.37396   1.38331   1.39278   1.40027
 Alpha virt. eigenvalues --    1.41022   1.41518   1.41905   1.42393   1.42692
 Alpha virt. eigenvalues --    1.43476   1.43764   1.44089   1.44805   1.45383
 Alpha virt. eigenvalues --    1.46204   1.47123   1.47736   1.48625   1.48907
 Alpha virt. eigenvalues --    1.50035   1.50250   1.51228   1.52407   1.52808
 Alpha virt. eigenvalues --    1.53307   1.54241   1.55032   1.55582   1.56315
 Alpha virt. eigenvalues --    1.57307   1.58158   1.58426   1.59146   1.59712
 Alpha virt. eigenvalues --    1.60459   1.61127   1.61603   1.62096   1.62838
 Alpha virt. eigenvalues --    1.63056   1.64944   1.65510   1.65963   1.66302
 Alpha virt. eigenvalues --    1.66983   1.67874   1.68247   1.69429   1.69791
 Alpha virt. eigenvalues --    1.70773   1.71402   1.71561   1.72570   1.72616
 Alpha virt. eigenvalues --    1.72955   1.74226   1.74824   1.75405   1.76407
 Alpha virt. eigenvalues --    1.76884   1.77267   1.77539   1.79597   1.80040
 Alpha virt. eigenvalues --    1.80689   1.80927   1.81541   1.81929   1.82998
 Alpha virt. eigenvalues --    1.83146   1.84402   1.85343   1.86782   1.87345
 Alpha virt. eigenvalues --    1.88268   1.89040   1.89895   1.90061   1.91901
 Alpha virt. eigenvalues --    1.92858   1.93327   1.93876   1.94328   1.95293
 Alpha virt. eigenvalues --    1.96682   1.97245   1.98568   2.00764   2.01285
 Alpha virt. eigenvalues --    2.01889   2.02397   2.03071   2.03719   2.04135
 Alpha virt. eigenvalues --    2.04544   2.05468   2.06118   2.06284   2.06687
 Alpha virt. eigenvalues --    2.07993   2.08312   2.08347   2.09210   2.09506
 Alpha virt. eigenvalues --    2.09995   2.10842   2.11044   2.11610   2.12517
 Alpha virt. eigenvalues --    2.12566   2.13306   2.13672   2.14017   2.14236
 Alpha virt. eigenvalues --    2.14515   2.15269   2.15649   2.16319   2.17221
 Alpha virt. eigenvalues --    2.17362   2.17463   2.18533   2.19310   2.19733
 Alpha virt. eigenvalues --    2.20042   2.20255   2.21664   2.23110   2.23580
 Alpha virt. eigenvalues --    2.24663   2.24744   2.25887   2.26351   2.26497
 Alpha virt. eigenvalues --    2.27350   2.28211   2.28820   2.29338   2.29814
 Alpha virt. eigenvalues --    2.30684   2.31841   2.32817   2.33513   2.34411
 Alpha virt. eigenvalues --    2.34510   2.34835   2.35507   2.36610   2.37317
 Alpha virt. eigenvalues --    2.38830   2.39583   2.40633   2.41105   2.42414
 Alpha virt. eigenvalues --    2.42738   2.43068   2.43802   2.44361   2.45074
 Alpha virt. eigenvalues --    2.45219   2.45744   2.46581   2.46665   2.48862
 Alpha virt. eigenvalues --    2.49195   2.49936   2.50272   2.50678   2.51774
 Alpha virt. eigenvalues --    2.52011   2.52540   2.52859   2.54271   2.54346
 Alpha virt. eigenvalues --    2.55388   2.55868   2.56070   2.56895   2.57117
 Alpha virt. eigenvalues --    2.58319   2.58805   2.59187   2.60240   2.60774
 Alpha virt. eigenvalues --    2.60960   2.61928   2.62519   2.64483   2.64871
 Alpha virt. eigenvalues --    2.65801   2.66374   2.67695   2.68848   2.69887
 Alpha virt. eigenvalues --    2.70126   2.70596   2.71058   2.72042   2.72790
 Alpha virt. eigenvalues --    2.74220   2.74786   2.75448   2.75672   2.76419
 Alpha virt. eigenvalues --    2.77405   2.79690   2.80295   2.80876   2.81850
 Alpha virt. eigenvalues --    2.82598   2.83060   2.83347   2.84027   2.85818
 Alpha virt. eigenvalues --    2.86545   2.87895   2.88465   2.88817   2.89501
 Alpha virt. eigenvalues --    2.91312   2.92289   2.92983   2.94076   2.94531
 Alpha virt. eigenvalues --    2.95305   2.95750   2.96340   2.96731   2.98410
 Alpha virt. eigenvalues --    2.98756   2.99638   3.01905   3.02005   3.02532
 Alpha virt. eigenvalues --    3.02771   3.04406   3.04928   3.06055   3.07910
 Alpha virt. eigenvalues --    3.08733   3.08904   3.09770   3.11781   3.12916
 Alpha virt. eigenvalues --    3.13085   3.14163   3.14629   3.15725   3.15907
 Alpha virt. eigenvalues --    3.16470   3.18637   3.19759   3.20426   3.20937
 Alpha virt. eigenvalues --    3.21967   3.22432   3.23424   3.24640   3.26971
 Alpha virt. eigenvalues --    3.29573   3.30544   3.30790   3.31381   3.32686
 Alpha virt. eigenvalues --    3.33355   3.33452   3.35934   3.39088   3.39504
 Alpha virt. eigenvalues --    3.40884   3.42692   3.46252   3.46926   3.55289
 Alpha virt. eigenvalues --    3.62635   3.68918   3.83748   3.87462   3.88299
 Alpha virt. eigenvalues --    3.90445   4.15358   4.18422   4.21865   4.24734
 Alpha virt. eigenvalues --    4.30332   4.32106   4.35625   4.37301   4.39091
 Alpha virt. eigenvalues --    4.40535   4.42427   4.44614   4.45827   4.48241
 Alpha virt. eigenvalues --    4.49126   4.50380   4.54411   4.55546   4.57369
 Alpha virt. eigenvalues --    4.59069   4.60075   4.61494   4.66423   4.67491
 Alpha virt. eigenvalues --    4.70378   4.72056   4.75118   4.76236   4.77377
 Alpha virt. eigenvalues --    4.81430   4.83622   4.89159   4.91395   4.92624
 Alpha virt. eigenvalues --    4.93722   4.96983   5.05865   5.09277   5.12329
 Alpha virt. eigenvalues --    5.13494   5.15906   5.17796
          Condensed to atoms (all electrons):
 Mulliken charges:
               1
     1  C    0.205975
     2  H    0.332305
     3  C   -0.306737
     4  H    0.298322
     5  C   -0.046656
     6  H    0.307719
     7  C   -0.226382
     8  C    0.820079
     9  O   -0.723667
    10  N   -0.968369
    11  H    0.490997
    12  H    0.432580
    13  C    0.227143
    14  H    0.357323
    15  N   -0.672341
    16  C    0.383816
    17  H    0.263223
    18  C    0.132766
    19  H    0.242161
    20  O   -0.803762
    21  H    0.500469
    22  C    0.104126
    23  H    0.243858
    24  O   -0.816342
    25  H    0.493751
    26  C    0.127005
    27  H    0.235150
    28  O   -0.704294
    29  C   -0.020122
    30  H    0.207443
    31  H    0.209889
    32  O   -0.749288
    33  P    1.632013
    34  O   -0.905891
    35  O   -0.878397
    36  O   -0.865432
    37  P    1.602774
    38  O   -0.883230
    39  O   -0.881576
    40  O   -0.763487
    41  C   -0.017873
    42  H    0.200982
    43  H    0.207473
    44  C    0.134602
    45  H    0.222824
    46  O   -0.719282
    47  C    0.089373
    48  H    0.241091
    49  O   -0.825658
    50  H    0.498667
    51  C    0.126978
    52  H    0.236002
    53  O   -0.816991
    54  H    0.491664
    55  C    0.406897
    56  H    0.237211
    57  N   -0.779135
    58  C    0.320694
    59  H    0.286160
    60  N   -0.632184
    61  C    0.056074
    62  C    0.631952
    63  N   -0.927684
    64  H    0.430004
    65  H    0.422247
    66  N   -0.700267
    67  C    0.280198
    68  H    0.238585
    69  N   -0.676982
    70  C    0.701466
 Sum of Mulliken charges =  -1.00000
 Mulliken charges with hydrogens summed into heavy atoms:
               1
     1  C    0.538280
     3  C   -0.008415
     5  C    0.261063
     7  C   -0.226382
     8  C    0.820079
     9  O   -0.723667
    10  N   -0.044793
    13  C    0.584466
    15  N   -0.672341
    16  C    0.647039
    18  C    0.374927
    20  O   -0.303294
    22  C    0.347984
    24  O   -0.322592
    26  C    0.362155
    28  O   -0.704294
    29  C    0.397210
    32  O   -0.749288
    33  P    1.632013
    34  O   -0.905891
    35  O   -0.878397
    36  O   -0.865432
    37  P    1.602774
    38  O   -0.883230
    39  O   -0.881576
    40  O   -0.763487
    41  C    0.390583
    44  C    0.357427
    46  O   -0.719282
    47  C    0.330464
    49  O   -0.326990
    51  C    0.362980
    53  O   -0.325327
    55  C    0.644108
    57  N   -0.779135
    58  C    0.606854
    60  N   -0.632184
    61  C    0.056074
    62  C    0.631952
    63  N   -0.075434
    66  N   -0.700267
    67  C    0.518783
    69  N   -0.676982
    70  C    0.701466
 Electronic spatial extent (au):  <R**2>=          39083.4471
 Charge=             -1.0000 electrons
 Dipole moment (field-independent basis, Debye):
    X=            -13.9721    Y=             36.6594    Z=             -4.2766  Tot=             39.4642
 Quadrupole moment (field-independent basis, Debye-Ang):
   XX=           -189.5994   YY=           -335.9446   ZZ=           -312.5919
   XY=           -104.6276   XZ=            -28.3047   YZ=             25.4583
 Traceless Quadrupole moment (field-independent basis, Debye-Ang):
   XX=             89.7793   YY=            -56.5660   ZZ=            -33.2133
   XY=           -104.6276   XZ=            -28.3047   YZ=             25.4583
 Octapole moment (field-independent basis, Debye-Ang**2):
  XXX=          -1019.2417  YYY=            548.4780  ZZZ=            -22.5926  XYY=            -52.9122
  XXY=            609.9394  XXZ=            238.8849  XZZ=             39.8566  YZZ=             32.5569
  YYZ=           -103.9193  XYZ=            130.6915
 Hexadecapole moment (field-independent basis, Debye-Ang**3):
 XXXX=         -35418.7358 YYYY=         -10430.3747 ZZZZ=          -2348.9183 XXXY=          -4751.8658
 XXXZ=          -1865.9639 YYYX=           -276.2446 YYYZ=            515.0431 ZZZX=           -307.9671
 ZZZY=            111.3263 XXYY=          -6688.0656 XXZZ=          -7685.4311 YYZZ=          -2374.0986
 XXYZ=            470.3389 YYXZ=            175.5818 ZZXY=           -150.2696
 N-N= 6.068512035246D+03 E-N=-1.905980113613D+04  KE= 2.916513570048D+03
 1\1\NSC-N1117\FOpt\RHF\6-31G(d)\C21H26N7O14P2(1-)\X_GABOA\13-Dec-2022\
 0\\#HF/6-31G* scrf=smd opt\\remark line goes here\\-1,1\C,-6.771678129
 3,2.7847960758,-0.1166320788\H,-6.6828862902,3.7839016876,0.258087763\
 C,-7.9831822762,2.2109523835,-0.3998226194\H,-8.8835590281,2.769346698
 4,-0.2406610013\C,-8.0056339733,0.9240129217,-0.904996244\H,-8.9375925
 37,0.4566447921,-1.1547286974\C,-6.8144358147,0.2264271931,-1.08808431
 56\C,-6.8782738946,-1.15704251,-1.6696413678\O,-7.8421639794,-1.464701
 815,-2.3474511097\N,-5.8776865259,-1.9918801599,-1.4218627383\H,-5.128
 656683,-1.8178878041,-0.7809656773\H,-5.9363078224,-2.9075872304,-1.81
 54385905\C,-5.6337246227,0.8553392323,-0.7756542944\H,-4.6732191773,0.
 4031092391,-0.8983416053\N,-5.6310289112,2.1103989797,-0.3105168448\C,
 -4.3519045907,2.7638055228,0.0733603852\H,-4.539930918,3.8251616712,0.
 0306645974\C,-3.8517162749,2.3410696182,1.4564372323\H,-4.0620229388,1
 .2905114416,1.6033709297\O,-4.3845160458,3.1096116976,2.4938606391\H,-
 5.2489183055,2.7782165144,2.7123498721\C,-2.3392888788,2.5222611825,1.
 3146750936\H,-1.8051594135,1.8293464999,1.9448112485\O,-1.8968791833,3
 .8013177377,1.6960334341\H,-2.2993485432,4.4729431892,1.1552331889\C,-
 2.0984825865,2.235128135,-0.1762844101\H,-1.4272265817,2.9777125541,-0
 .584194048\O,-3.3706511338,2.3841122837,-0.8239681334\C,-1.536996458,0
 .8701301449,-0.4968198433\H,-1.471491227,0.7473849662,-1.5683081381\H,
 -0.5468486115,0.7838153426,-0.0679433757\O,-2.3946437322,-0.1160696585
 ,0.0480661937\P,-2.1501507958,-1.6845426021,-0.1653442542\O,-1.6185503
 831,-1.9532589296,-1.5215656746\O,-3.3858872293,-2.3600221591,0.298393
 0195\O,-0.9707632725,-1.9110293856,0.9246884846\P,0.0261246458,-3.1760
 634637,1.1199302757\O,0.6824124178,-2.9670836619,2.4319164328\O,-0.693
 6851177,-4.4357423856,0.8265983815\O,1.0804198174,-2.9692905384,-0.070
 5586404\C,1.8578598682,-1.7900655086,-0.1881195451\H,1.9657991001,-1.3
 007174021,0.7701203098\H,1.3675388449,-1.1138167979,-0.8742296282\C,3.
 2150811557,-2.1802938833,-0.7444324379\H,3.080280308,-2.7657570485,-1.
 6436865452\O,3.9061169062,-0.9768002708,-1.0755963148\C,4.1086576814,-
 2.9249649214,0.2501230678\H,3.5372761632,-3.4297874729,1.012472934\O,4
 .9094977677,-3.9141231988,-0.3575888444\H,5.2691377502,-3.5993277169,-
 1.1808807491\C,4.9647791857,-1.7967318968,0.8263987921\H,4.4145451512,
 -1.2872866866,1.6042732499\O,6.1815588661,-2.2100921745,1.3774050493\H
 ,6.5296981864,-2.9107158369,0.8340856097\C,5.1250396203,-0.8763307187,
 -0.3834595785\H,5.942184493,-1.214113926,-1.0028595498\N,5.3862684822,
 0.5074888345,-0.0798680305\C,4.5940957687,1.3527810516,0.6548337441\H,
 3.6993800347,1.0008636116,1.1238950282\N,5.0270829376,2.559080234,0.70
 77651649\C,6.1881620969,2.5360411426,-0.0482866983\C,7.1240780149,3.51
 89768285,-0.3851896829\N,7.0041483242,4.8022124613,-0.0007911361\H,6.3
 952195889,5.0123728719,0.760062019\H,7.8118516379,5.3809633191,-0.0877
 613185\N,8.156061761,3.1725599893,-1.1542319393\C,8.2458022505,1.91420
 68854,-1.5661839083\H,9.0965112539,1.6937584054,-2.1835220143\N,7.4372
 492759,0.9092316038,-1.3176471263\C,6.4146055305,1.2750288209,-0.54703
 239\\Version=ES64L-G09RevE.01\State=1-A\HF=-2921.5091887\RMSD=7.701e-0
 9\RMSF=9.804e-06\Dipole=-5.4103102,14.4606973,-1.6390046\Quadrupole=66
 .6384389,-41.6721497,-24.9662892,-78.3507406,-20.3330223,17.7885505\PG
 =C01 [X(C21H26N7O14P2)]\\@


 KEEP CLOSE TO NATURES HEART, YOURSELF;
 AND BREAK CLEAR AWAY, ONCE IN A WHILE, AND
 CLIMB A MOUNTAIN OR SPEND A WEEK IN THE
 WOODS.  WASH YOUR SPIRIT CLEAN...
                                         -- JOHN MUIR
 Job cpu time:       0 days 11 hours 50 minutes  4.1 seconds.
 File lengths (MBytes):  RWF=   1128 Int=      0 D2E=      0 Chk=     48 Scr=      1
 Normal termination of Gaussian 09 at Tue Dec 13 20:35:37 2022.
