 Entering Gaussian System, Link 0=/software/sse/easybuild/prefix/software/Gaussian/09.E.01-avx-nsc1-bdist/g09/g09.orig
 Input=nad_gesp.wrap
 Output=nad_gesp.log
 Initial command:
 /software/sse/easybuild/prefix/software/Gaussian/09.E.01-avx-nsc1-bdist/g09/l1.exe "/scratch/local/Gau-70216.inp" -scrdir="/scratch/local/"
 Entering Link 1 = /software/sse/easybuild/prefix/software/Gaussian/09.E.01-avx-nsc1-bdist/g09/l1.exe PID=     70217.
  
 Copyright (c) 1988,1990,1992,1993,1995,1998,2003,2009,2015,
            Gaussian, Inc.  All Rights Reserved.
  
 This is part of the Gaussian(R) 09 program.  It is based on
 the Gaussian(R) 03 system (copyright 2003, Gaussian, Inc.),
 the Gaussian(R) 98 system (copyright 1998, Gaussian, Inc.),
 the Gaussian(R) 94 system (copyright 1995, Gaussian, Inc.),
 the Gaussian 92(TM) system (copyright 1992, Gaussian, Inc.),
 the Gaussian 90(TM) system (copyright 1990, Gaussian, Inc.),
 the Gaussian 88(TM) system (copyright 1988, Gaussian, Inc.),
 the Gaussian 86(TM) system (copyright 1986, Carnegie Mellon
 University), and the Gaussian 82(TM) system (copyright 1983,
 Carnegie Mellon University). Gaussian is a federally registered
 trademark of Gaussian, Inc.
  
 This software contains proprietary and confidential information,
 including trade secrets, belonging to Gaussian, Inc.
  
 This software is provided under written license and may be
 used, copied, transmitted, or stored only in accord with that
 written license.
  
 The following legend is applicable only to US Government
 contracts under FAR:
  
                    RESTRICTED RIGHTS LEGEND
  
 Use, reproduction and disclosure by the US Government is
 subject to restrictions as set forth in subparagraphs (a)
 and (c) of the Commercial Computer Software - Restricted
 Rights clause in FAR 52.227-19.
  
 Gaussian, Inc.
 340 Quinnipiac St., Bldg. 40, Wallingford CT 06492
  
  
 ---------------------------------------------------------------
 Warning -- This program may not be used in any manner that
 competes with the business of Gaussian, Inc. or will provide
 assistance to any competitor of Gaussian, Inc.  The licensee
 of this program is prohibited from giving any competitor of
 Gaussian, Inc. access to this program.  By using this program,
 the user acknowledges that Gaussian, Inc. is engaged in the
 business of creating and licensing software in the field of
 computational chemistry and represents and warrants to the
 licensee that it is not a competitor of Gaussian, Inc. and that
 it will not use this program in any manner prohibited above.
 ---------------------------------------------------------------
  

 Cite this work as:
 Gaussian 09, Revision E.01,
 M. J. Frisch, G. W. Trucks, H. B. Schlegel, G. E. Scuseria, 
 M. A. Robb, J. R. Cheeseman, G. Scalmani, V. Barone, B. Mennucci, 
 G. A. Petersson, H. Nakatsuji, M. Caricato, X. Li, H. P. Hratchian, 
 A. F. Izmaylov, J. Bloino, G. Zheng, J. L. Sonnenberg, M. Hada, 
 M. Ehara, K. Toyota, R. Fukuda, J. Hasegawa, M. Ishida, T. Nakajima, 
 Y. Honda, O. Kitao, H. Nakai, T. Vreven, J. A. Montgomery, Jr., 
 J. E. Peralta, F. Ogliaro, M. Bearpark, J. J. Heyd, E. Brothers, 
 K. N. Kudin, V. N. Staroverov, T. Keith, R. Kobayashi, J. Normand, 
 K. Raghavachari, A. Rendell, J. C. Burant, S. S. Iyengar, J. Tomasi, 
 M. Cossi, N. Rega, J. M. Millam, M. Klene, J. E. Knox, J. B. Cross, 
 V. Bakken, C. Adamo, J. Jaramillo, R. Gomperts, R. E. Stratmann, 
 O. Yazyev, A. J. Austin, R. Cammi, C. Pomelli, J. W. Ochterski, 
 R. L. Martin, K. Morokuma, V. G. Zakrzewski, G. A. Voth, 
 P. Salvador, J. J. Dannenberg, S. Dapprich, A. D. Daniels, 
 O. Farkas, J. B. Foresman, J. V. Ortiz, J. Cioslowski, 
 and D. J. Fox, Gaussian, Inc., Wallingford CT, 2013.
 
 ******************************************
 Gaussian 09:  ES64L-G09RevE.01 30-Nov-2015
                13-Dec-2022 
 ******************************************
 %chk=nad_gesp
 ----------------------------------------------------------------------
 #HF/6-31G* scrf=smd SCF=tight Test Pop=MK iop(6/33=2) iop(6/42=6) # io
 p(6/50=1)
 ----------------------------------------------------------------------
 1/38=1/1;
 2/12=2,17=6,18=5,40=1/2;
 3/5=1,6=6,7=1,11=9,16=1,25=1,30=1,70=32201,72=1/1,2,3;
 4//1;
 5/5=2,32=2,38=5/2;
 6/7=2,8=2,9=2,10=2,15=8,20=1,28=1,33=2,42=6,50=1/1,2;
 99/5=1,9=1/99;
 -----------------
 calc RESP charges
 -----------------
 Symbolic Z-matrix:
 Charge = -1 Multiplicity = 1
 C                    -6.81712   2.73629  -0.01736 
 H                    -6.72757   3.73885   0.34783 
 C                    -8.02988   2.15485  -0.27885 
 H                    -8.93043   2.71063  -0.11175 
 C                    -8.05363   0.86367  -0.77303 
 H                    -8.98688   0.3902   -1.00585 
 C                    -6.862     0.16977  -0.96697 
 C                    -6.92776  -1.21875  -1.53614 
 O                    -7.89962  -1.53622  -2.19786 
 N                    -5.9201   -2.04714  -1.29548 
 H                    -5.163    -1.86458  -0.66657 
 H                    -5.98012  -2.96634  -1.68063 
 C                    -5.67986   0.80638  -0.67626 
 H                    -4.71915   0.35733  -0.80862 
 N                    -5.67629   2.06527  -0.22158 
 C                    -4.39487   2.72739   0.13899 
 H                    -4.5882    3.78753   0.09017 
 C                    -3.87358   2.31835   1.51839 
 H                    -4.07713   1.26814   1.67691 
 O                    -4.3953    3.09316   2.55677 
 H                    -5.25509   2.75985   2.79004 
 C                    -2.3641    2.50492   1.35402 
 H                    -1.81815   1.8196    1.98233 
 O                    -1.92213   3.78902   1.7186 
 H                    -2.33508   4.45437   1.17795 
 C                    -2.1428    2.20645  -0.13773 
 H                    -1.48061   2.94853  -0.56109 
 O                    -3.42452   2.34452  -0.76879 
 C                    -1.57976   0.84129  -0.45481 
 H                    -1.52864   0.70993  -1.52605 
 H                    -0.58335   0.76285  -0.0391 
 O                    -2.42532  -0.14406   0.11013 
 P                    -2.17683  -1.71318  -0.09373 
 O                    -1.66298  -1.99085  -1.45498 
 O                    -3.40296  -2.39014   0.39278 
 O                    -0.98138  -1.92547   0.98156 
 P                     0.02377  -3.1845    1.17329 
 O                     0.69733  -2.96177   2.47421 
 O                    -0.69443  -4.44968   0.90045 
 O                     1.06044  -2.98305  -0.03347 
 C                     1.8309   -1.80148  -0.17161 
 H                     1.95     -1.30371   0.78096 
 H                     1.32806  -1.13309  -0.85636 
 C                     3.18197  -2.19042  -0.74358 
 H                     3.03727  -2.78391  -1.63601 
 O                     3.86295  -0.98673  -1.09429 
 C                     4.09263  -2.9229    0.24451 
 H                     3.53418  -3.42385   1.0189 
 O                     4.88933  -3.91359  -0.36615 
 H                     5.23606  -3.60409  -1.19695 
 C                     4.95165  -1.78621   0.79944 
 H                     4.41004  -1.27271   1.58069 
 O                     6.17782  -2.18968   1.33679 
 H                     6.52148  -2.89328   0.79446 
 C                     5.09094  -0.87521  -0.4201 
 H                     5.90087  -1.21458  -1.04804 
 N                     5.3502    0.51221  -0.13161 
 C                     4.56457   1.36013   0.60708 
 H                     3.67806   1.00824   1.09148 
 N                     4.99287   2.5687    0.644 
 C                     6.1434    2.54442  -0.12798 
 C                     7.07013   3.52857  -0.48602 
 N                     6.94985   4.81443  -0.11058 
 H                     6.35065   5.02826   0.65694 
 H                     7.75367   5.39594  -0.2136 
 N                     8.09284   3.18026  -1.26651 
 C                     8.18244   1.91893  -1.66928 
 H                     9.02544   1.69705  -2.2966 
 N                     7.38192   0.91255  -1.40119 
 C                     6.36849   1.2803   -0.61941 
 
 Stoichiometry    C21H26N7O14P2(1-)
 Framework group  C1[X(C21H26N7O14P2)]
 Deg. of freedom   204
 Full point group                 C1      NOp   1
 Largest Abelian subgroup         C1      NOp   1
 Largest concise Abelian subgroup C1      NOp   1
                         Standard orientation:                         
 ---------------------------------------------------------------------
 Center     Atomic      Atomic             Coordinates (Angstroms)
 Number     Number       Type             X           Y           Z
 ---------------------------------------------------------------------
      1          6           0       -6.817120    2.736289   -0.017356
      2          1           0       -6.727573    3.738852    0.347829
      3          6           0       -8.029880    2.154853   -0.278853
      4          1           0       -8.930434    2.710634   -0.111745
      5          6           0       -8.053627    0.863673   -0.773026
      6          1           0       -8.986880    0.390200   -1.005852
      7          6           0       -6.861995    0.169770   -0.966970
      8          6           0       -6.927758   -1.218751   -1.536142
      9          8           0       -7.899615   -1.536219   -2.197861
     10          7           0       -5.920102   -2.047145   -1.295482
     11          1           0       -5.163001   -1.864578   -0.666567
     12          1           0       -5.980116   -2.966338   -1.680630
     13          6           0       -5.679863    0.806382   -0.676262
     14          1           0       -4.719153    0.357325   -0.808617
     15          7           0       -5.676286    2.065265   -0.221581
     16          6           0       -4.394865    2.727392    0.138988
     17          1           0       -4.588199    3.787529    0.090165
     18          6           0       -3.873578    2.318346    1.518385
     19          1           0       -4.077130    1.268142    1.676907
     20          8           0       -4.395297    3.093165    2.556772
     21          1           0       -5.255085    2.759845    2.790040
     22          6           0       -2.364095    2.504922    1.354023
     23          1           0       -1.818154    1.819597    1.982334
     24          8           0       -1.922125    3.789015    1.718597
     25          1           0       -2.335080    4.454366    1.177946
     26          6           0       -2.142804    2.206452   -0.137734
     27          1           0       -1.480614    2.948528   -0.561094
     28          8           0       -3.424523    2.344518   -0.768794
     29          6           0       -1.579755    0.841288   -0.454805
     30          1           0       -1.528635    0.709925   -1.526054
     31          1           0       -0.583354    0.762845   -0.039102
     32          8           0       -2.425321   -0.144064    0.110126
     33         15           0       -2.176832   -1.713180   -0.093727
     34          8           0       -1.662983   -1.990850   -1.454977
     35          8           0       -3.402964   -2.390143    0.392783
     36          8           0       -0.981376   -1.925471    0.981559
     37         15           0        0.023767   -3.184495    1.173291
     38          8           0        0.697329   -2.961765    2.474214
     39          8           0       -0.694434   -4.449684    0.900447
     40          8           0        1.060443   -2.983048   -0.033472
     41          6           0        1.830903   -1.801475   -0.171608
     42          1           0        1.949997   -1.303713    0.780960
     43          1           0        1.328061   -1.133090   -0.856360
     44          6           0        3.181970   -2.190415   -0.743583
     45          1           0        3.037268   -2.783914   -1.636005
     46          8           0        3.862951   -0.986725   -1.094287
     47          6           0        4.092627   -2.922902    0.244506
     48          1           0        3.534178   -3.423847    1.018902
     49          8           0        4.889327   -3.913590   -0.366148
     50          1           0        5.236056   -3.604091   -1.196952
     51          6           0        4.951652   -1.786209    0.799438
     52          1           0        4.410041   -1.272709    1.580691
     53          8           0        6.177821   -2.189684    1.336788
     54          1           0        6.521479   -2.893281    0.794460
     55          6           0        5.090937   -0.875210   -0.420095
     56          1           0        5.900872   -1.214578   -1.048039
     57          7           0        5.350195    0.512207   -0.131612
     58          6           0        4.564572    1.360129    0.607082
     59          1           0        3.678056    1.008240    1.091482
     60          7           0        4.992870    2.568696    0.644004
     61          6           0        6.143396    2.544417   -0.127975
     62          6           0        7.070134    3.528574   -0.486017
     63          7           0        6.949849    4.814428   -0.110584
     64          1           0        6.350647    5.028260    0.656939
     65          1           0        7.753673    5.395940   -0.213600
     66          7           0        8.092840    3.180262   -1.266513
     67          6           0        8.182444    1.918930   -1.669280
     68          1           0        9.025445    1.697054   -2.296599
     69          7           0        7.381922    0.912552   -1.401189
     70          6           0        6.368491    1.280297   -0.619411
 ---------------------------------------------------------------------
 Rotational constants (GHZ):      0.1058672      0.0304032      0.0254894
 Standard basis: 6-31G(d) (6D, 7F)
 There are   720 symmetry adapted cartesian basis functions of A   symmetry.
 There are   720 symmetry adapted basis functions of A   symmetry.
   720 basis functions,  1384 primitive gaussians,   720 cartesian basis functions
   172 alpha electrons      172 beta electrons
       nuclear repulsion energy      6068.4938688751 Hartrees.
 NAtoms=   70 NActive=   70 NUniq=   70 SFac= 1.00D+00 NAtFMM=   60 NAOKFM=T Big=T
 Integral buffers will be    131072 words long.
 Raffenetti 1 integral format.
 Two-electron integral symmetry is turned on.
 ------------------------------------------------------------------------------
 Polarizable Continuum Model (PCM)
 =================================
 Model                : PCM (using non-symmetric T matrix).
 Atomic radii         : SMD-Coulomb.
 Polarization charges : Total charges.
 Charge compensation  : None.
 Solution method      : On-the-fly selection.
 Cavity type          : VdW (van der Waals Surface) (Alpha=1.000).
 Cavity algorithm     : GePol (No added spheres)
                        Default sphere list used, NSphG=   70.
                        Lebedev-Laikov grids with approx.  5.0 points / Ang**2.
                        Smoothing algorithm: York/Karplus (Gamma=1.0000).
                        Polarization charges: spherical gaussians, with
                                              point-specific exponents (IZeta= 3).
                        Self-potential: point-specific (ISelfS= 7).
                        Self-field    : sphere-specific E.n sum rule (ISelfD= 2).
 Solvent              : Water, Eps=  78.355300 Eps(inf)=   1.777849
 ------------------------------------------------------------------------------
 ------------------------------------------------------------------------------
 Atomic radii for non-electrostatic terms: SMD-CDS.
 ------------------------------------------------------------------------------
 Nuclear repulsion after PCM non-electrostatic terms =     6068.5120648250 Hartrees.
 One-electron integrals computed using PRISM.
 NBasis=   720 RedAO= T EigKep=  5.99D-04  NBF=   720
 NBsUse=   720 1.00D-06 EigRej= -1.00D+00 NBFU=   720
 ExpMin= 9.98D-02 ExpMax= 1.94D+04 ExpMxC= 2.91D+03 IAcc=2 IRadAn=         4 AccDes= 0.00D+00
 Harris functional with IExCor=  205 and IRadAn=       4 diagonalized for initial guess.
 HarFok:  IExCor=  205 AccDes= 0.00D+00 IRadAn=         4 IDoV= 1 UseB2=F ITyADJ=14
 ICtDFT=  3500011 ScaDFX=  1.000000  1.000000  1.000000  1.000000
 FoFCou: FMM=F IPFlag=           0 FMFlag=      100000 FMFlg1=        2001
         NFxFlg=           0 DoJE=T BraDBF=F KetDBF=T FulRan=T
         wScrn=  0.000000 ICntrl=     500 IOpCl=  0 I1Cent=   200000004 NGrid=           0
         NMat0=    1 NMatS0=      1 NMatT0=    0 NMatD0=    1 NMtDS0=    0 NMtDT0=    0
 Petite list used in FoFCou.
 Requested convergence on RMS density matrix=1.00D-08 within 128 cycles.
 Requested convergence on MAX density matrix=1.00D-06.
 Requested convergence on             energy=1.00D-06.
 No special actions if energy rises.
 Inv3:  Mode=1 IEnd=    75210147.
 Iteration    1 A*A^-1 deviation from unit magnitude is 9.10D-15 for   5005.
 Iteration    1 A*A^-1 deviation from orthogonality  is 5.11D-15 for   4997   1979.
 Iteration    1 A^-1*A deviation from unit magnitude is 9.55D-15 for   5005.
 Iteration    1 A^-1*A deviation from orthogonality  is 7.77D-10 for   4431   4319.
 Iteration    2 A*A^-1 deviation from unit magnitude is 2.89D-15 for    237.
 Iteration    2 A*A^-1 deviation from orthogonality  is 3.55D-15 for   2945   1389.
 Iteration    2 A^-1*A deviation from unit magnitude is 8.88D-16 for   1129.
 Iteration    2 A^-1*A deviation from orthogonality  is 3.39D-16 for   3058    502.
 Error on total polarization charges =  0.05335
 SCF Done:  E(RHF) =  -2921.50918870     A.U. after   14 cycles
            NFock= 14  Conv=0.76D-08     -V/T= 2.0017
 SMD-CDS (non-electrostatic) energy       (kcal/mol) =      11.42
 (included in total energy above)

 **********************************************************************

            Population analysis using the SCF density.

 **********************************************************************

 Orbital symmetries:
 BldTbl:  Degeneracy threshold= 1.00D-02
       Occupied  (A) (A) (A) (A) (A) (A) (A) (A) (A) (A) (A) (A)
                 (A) (A) (A) (A) (A) (A) (A) (A) (A) (A) (A) (A)
                 (A) (A) (A) (A) (A) (A) (A) (A) (A) (A) (A) (A)
                 (A) (A) (A) (A) (A) (A) (A) (A) (A) (A) (A) (A)
                 (A) (A) (A) (A) (A) (A) (A) (A) (A) (A) (A) (A)
                 (A) (A) (A) (A) (A) (A) (A) (A) (A) (A) (A) (A)
                 (A) (A) (A) (A) (A) (A) (A) (A) (A) (A) (A) (A)
                 (A) (A) (A) (A) (A) (A) (A) (A) (A) (A) (A) (A)
                 (A) (A) (A) (A) (A) (A) (A) (A) (A) (A) (A) (A)
                 (A) (A) (A) (A) (A) (A) (A) (A) (A) (A) (A) (A)
                 (A) (A) (A) (A) (A) (A) (A) (A) (A) (A) (A) (A)
                 (A) (A) (A) (A) (A) (A) (A) (A) (A) (A) (A) (A)
                 (A) (A) (A) (A) (A) (A) (A) (A) (A) (A) (A) (A)
                 (A) (A) (A) (A) (A) (A) (A) (A) (A) (A) (A) (A)
                 (A) (A) (A) (A)
       Virtual   (A) (A) (A) (A) (A) (A) (A) (A) (A) (A) (A) (A)
                 (A) (A) (A) (A) (A) (A) (A) (A) (A) (A) (A) (A)
                 (A) (A) (A) (A) (A) (A) (A) (A) (A) (A) (A) (A)
                 (A) (A) (A) (A) (A) (A) (A) (A) (A) (A) (A) (A)
                 (A) (A) (A) (A) (A) (A) (A) (A) (A) (A) (A) (A)
                 (A) (A) (A) (A) (A) (A) (A) (A) (A) (A) (A) (A)
                 (A) (A) (A) (A) (A) (A) (A) (A) (A) (A) (A) (A)
                 (A) (A) (A) (A) (A) (A) (A) (A) (A) (A) (A) (A)
                 (A) (A) (A) (A) (A) (A) (A) (A) (A) (A) (A) (A)
                 (A) (A) (A) (A) (A) (A) (A) (A) (A) (A) (A) (A)
                 (A) (A) (A) (A) (A) (A) (A) (A) (A) (A) (A) (A)
                 (A) (A) (A) (A) (A) (A) (A) (A) (A) (A) (A) (A)
                 (A) (A) (A) (A) (A) (A) (A) (A) (A) (A) (A) (A)
                 (A) (A) (A) (A) (A) (A) (A) (A) (A) (A) (A) (A)
                 (A) (A) (A) (A) (A) (A) (A) (A) (A) (A) (A) (A)
                 (A) (A) (A) (A) (A) (A) (A) (A) (A) (A) (A) (A)
                 (A) (A) (A) (A) (A) (A) (A) (A) (A) (A) (A) (A)
                 (A) (A) (A) (A) (A) (A) (A) (A) (A) (A) (A) (A)
                 (A) (A) (A) (A) (A) (A) (A) (A) (A) (A) (A) (A)
                 (A) (A) (A) (A) (A) (A) (A) (A) (A) (A) (A) (A)
                 (A) (A) (A) (A) (A) (A) (A) (A) (A) (A) (A) (A)
                 (A) (A) (A) (A) (A) (A) (A) (A) (A) (A) (A) (A)
                 (A) (A) (A) (A) (A) (A) (A) (A) (A) (A) (A) (A)
                 (A) (A) (A) (A) (A) (A) (A) (A) (A) (A) (A) (A)
                 (A) (A) (A) (A) (A) (A) (A) (A) (A) (A) (A) (A)
                 (A) (A) (A) (A) (A) (A) (A) (A) (A) (A) (A) (A)
                 (A) (A) (A) (A) (A) (A) (A) (A) (A) (A) (A) (A)
                 (A) (A) (A) (A) (A) (A) (A) (A) (A) (A) (A) (A)
                 (A) (A) (A) (A) (A) (A) (A) (A) (A) (A) (A) (A)
                 (A) (A) (A) (A) (A) (A) (A) (A) (A) (A) (A) (A)
                 (A) (A) (A) (A) (A) (A) (A) (A) (A) (A) (A) (A)
                 (A) (A) (A) (A) (A) (A) (A) (A) (A) (A) (A) (A)
                 (A) (A) (A) (A) (A) (A) (A) (A) (A) (A) (A) (A)
                 (A) (A) (A) (A) (A) (A) (A) (A) (A) (A) (A) (A)
                 (A) (A) (A) (A) (A) (A) (A) (A) (A) (A) (A) (A)
                 (A) (A) (A) (A) (A) (A) (A) (A) (A) (A) (A) (A)
                 (A) (A) (A) (A) (A) (A) (A) (A) (A) (A) (A) (A)
                 (A) (A) (A) (A) (A) (A) (A) (A) (A) (A) (A) (A)
                 (A) (A) (A) (A) (A) (A) (A) (A) (A) (A) (A) (A)
                 (A) (A) (A) (A) (A) (A) (A) (A) (A) (A) (A) (A)
                 (A) (A) (A) (A) (A) (A) (A) (A) (A) (A) (A) (A)
                 (A) (A) (A) (A) (A) (A) (A) (A) (A) (A) (A) (A)
                 (A) (A) (A) (A) (A) (A) (A) (A) (A) (A) (A) (A)
                 (A) (A) (A) (A) (A) (A) (A) (A) (A) (A) (A) (A)
                 (A) (A) (A) (A) (A) (A) (A) (A) (A) (A) (A) (A)
                 (A) (A) (A) (A) (A) (A) (A) (A)
 The electronic state is 1-A.
 Alpha  occ. eigenvalues --  -80.07557 -80.07383 -20.59612 -20.58281 -20.58190
 Alpha  occ. eigenvalues --  -20.58091 -20.57877 -20.57843 -20.57485 -20.57264
 Alpha  occ. eigenvalues --  -20.57214 -20.54147 -20.50390 -20.50261 -20.50173
 Alpha  occ. eigenvalues --  -20.50118 -15.69536 -15.62783 -15.58382 -15.57576
 Alpha  occ. eigenvalues --  -15.56590 -15.56146 -15.55433 -11.37651 -11.34812
 Alpha  occ. eigenvalues --  -11.33673 -11.33450 -11.33244 -11.33011 -11.31497
 Alpha  occ. eigenvalues --  -11.31049 -11.30952 -11.29600 -11.29355 -11.29199
 Alpha  occ. eigenvalues --  -11.29046 -11.28550 -11.28459 -11.28395 -11.28323
 Alpha  occ. eigenvalues --  -11.28033 -11.28015 -11.26550 -11.24850  -7.59794
 Alpha  occ. eigenvalues --   -7.59615  -5.49683  -5.49640  -5.49557  -5.49520
 Alpha  occ. eigenvalues --   -5.49442  -5.49383  -1.44619  -1.43799  -1.42796
 Alpha  occ. eigenvalues --   -1.40652  -1.40601  -1.39116  -1.38841  -1.37423
 Alpha  occ. eigenvalues --   -1.37277  -1.36426  -1.36292  -1.35885  -1.31157
 Alpha  occ. eigenvalues --   -1.31050  -1.29214  -1.26515  -1.26329  -1.25338
 Alpha  occ. eigenvalues --   -1.22437  -1.20139  -1.16108  -1.15397  -1.09898
 Alpha  occ. eigenvalues --   -1.06273  -1.05544  -1.04743  -1.04647  -1.02647
 Alpha  occ. eigenvalues --   -0.95847  -0.94316  -0.93844  -0.90147  -0.89553
 Alpha  occ. eigenvalues --   -0.88123  -0.86251  -0.85238  -0.84137  -0.83036
 Alpha  occ. eigenvalues --   -0.82571  -0.81995  -0.79790  -0.78208  -0.77187
 Alpha  occ. eigenvalues --   -0.75736  -0.74685  -0.74300  -0.73971  -0.72965
 Alpha  occ. eigenvalues --   -0.72531  -0.71949  -0.70819  -0.70679  -0.69579
 Alpha  occ. eigenvalues --   -0.68508  -0.68134  -0.67948  -0.67784  -0.66882
 Alpha  occ. eigenvalues --   -0.66480  -0.66199  -0.65654  -0.65274  -0.64924
 Alpha  occ. eigenvalues --   -0.64208  -0.63415  -0.63133  -0.62980  -0.62557
 Alpha  occ. eigenvalues --   -0.62115  -0.61949  -0.61292  -0.61138  -0.60764
 Alpha  occ. eigenvalues --   -0.60142  -0.60011  -0.59350  -0.59203  -0.59066
 Alpha  occ. eigenvalues --   -0.58398  -0.57855  -0.57046  -0.56702  -0.56111
 Alpha  occ. eigenvalues --   -0.55719  -0.55548  -0.55294  -0.54046  -0.53266
 Alpha  occ. eigenvalues --   -0.52621  -0.52300  -0.51079  -0.51071  -0.50218
 Alpha  occ. eigenvalues --   -0.49939  -0.49451  -0.49323  -0.49007  -0.48491
 Alpha  occ. eigenvalues --   -0.48104  -0.47499  -0.46988  -0.46278  -0.45782
 Alpha  occ. eigenvalues --   -0.45476  -0.45219  -0.44912  -0.44528  -0.44270
 Alpha  occ. eigenvalues --   -0.43771  -0.43694  -0.43232  -0.42958  -0.42441
 Alpha  occ. eigenvalues --   -0.42042  -0.41436  -0.41249  -0.40592  -0.38724
 Alpha  occ. eigenvalues --   -0.36886  -0.31261
 Alpha virt. eigenvalues --    0.05783   0.08686   0.13125   0.15649   0.20363
 Alpha virt. eigenvalues --    0.21140   0.21861   0.22399   0.23036   0.23429
 Alpha virt. eigenvalues --    0.23949   0.24319   0.25042   0.25786   0.26263
 Alpha virt. eigenvalues --    0.26430   0.27204   0.28225   0.28914   0.29598
 Alpha virt. eigenvalues --    0.29695   0.29897   0.30458   0.31078   0.31511
 Alpha virt. eigenvalues --    0.31667   0.31828   0.32018   0.32267   0.32637
 Alpha virt. eigenvalues --    0.32947   0.33639   0.34197   0.34295   0.34681
 Alpha virt. eigenvalues --    0.35401   0.36472   0.36583   0.36892   0.37396
 Alpha virt. eigenvalues --    0.37922   0.38256   0.38675   0.39616   0.39648
 Alpha virt. eigenvalues --    0.40001   0.40846   0.41237   0.41338   0.41888
 Alpha virt. eigenvalues --    0.42320   0.42439   0.43210   0.43614   0.44186
 Alpha virt. eigenvalues --    0.44935   0.45411   0.46033   0.46193   0.47133
 Alpha virt. eigenvalues --    0.47563   0.47846   0.48500   0.48883   0.49623
 Alpha virt. eigenvalues --    0.50035   0.51036   0.51648   0.52324   0.53140
 Alpha virt. eigenvalues --    0.53625   0.53846   0.54355   0.54792   0.55387
 Alpha virt. eigenvalues --    0.56194   0.58124   0.59034   0.59426   0.60067
 Alpha virt. eigenvalues --    0.61167   0.61454   0.62727   0.63661   0.63936
 Alpha virt. eigenvalues --    0.65269   0.65523   0.66785   0.67840   0.70010
 Alpha virt. eigenvalues --    0.71230   0.72304   0.73401   0.73907   0.73935
 Alpha virt. eigenvalues --    0.75069   0.75524   0.75784   0.76729   0.77124
 Alpha virt. eigenvalues --    0.77607   0.78152   0.78599   0.79393   0.79812
 Alpha virt. eigenvalues --    0.80320   0.80603   0.81075   0.81226   0.81386
 Alpha virt. eigenvalues --    0.82061   0.82221   0.82643   0.83391   0.83614
 Alpha virt. eigenvalues --    0.83971   0.84305   0.84833   0.85862   0.86088
 Alpha virt. eigenvalues --    0.87311   0.87534   0.87849   0.87990   0.88706
 Alpha virt. eigenvalues --    0.89431   0.89639   0.90760   0.91249   0.91546
 Alpha virt. eigenvalues --    0.92298   0.92761   0.93070   0.93667   0.94055
 Alpha virt. eigenvalues --    0.94150   0.94278   0.94774   0.95633   0.95906
 Alpha virt. eigenvalues --    0.96785   0.97051   0.97656   0.97842   0.98913
 Alpha virt. eigenvalues --    0.99250   0.99729   1.00116   1.00874   1.01047
 Alpha virt. eigenvalues --    1.02347   1.02722   1.03296   1.03482   1.03806
 Alpha virt. eigenvalues --    1.04504   1.04991   1.05628   1.06771   1.06886
 Alpha virt. eigenvalues --    1.07288   1.07670   1.08114   1.08310   1.09088
 Alpha virt. eigenvalues --    1.09254   1.09644   1.10200   1.10559   1.11102
 Alpha virt. eigenvalues --    1.11581   1.11891   1.12034   1.12629   1.13296
 Alpha virt. eigenvalues --    1.14033   1.14220   1.14402   1.15650   1.15872
 Alpha virt. eigenvalues --    1.16120   1.16359   1.16980   1.17106   1.17459
 Alpha virt. eigenvalues --    1.17971   1.18471   1.18619   1.19127   1.19958
 Alpha virt. eigenvalues --    1.20134   1.20716   1.21009   1.21271   1.21874
 Alpha virt. eigenvalues --    1.22737   1.23167   1.23501   1.23835   1.24370
 Alpha virt. eigenvalues --    1.24866   1.25019   1.25322   1.26132   1.26572
 Alpha virt. eigenvalues --    1.27262   1.27405   1.28180   1.28680   1.28721
 Alpha virt. eigenvalues --    1.30080   1.30317   1.30617   1.31026   1.31185
 Alpha virt. eigenvalues --    1.31289   1.32126   1.32487   1.32831   1.33398
 Alpha virt. eigenvalues --    1.34139   1.34660   1.35071   1.35413   1.36089
 Alpha virt. eigenvalues --    1.36542   1.37396   1.38331   1.39278   1.40027
 Alpha virt. eigenvalues --    1.41022   1.41518   1.41905   1.42393   1.42692
 Alpha virt. eigenvalues --    1.43476   1.43764   1.44089   1.44805   1.45383
 Alpha virt. eigenvalues --    1.46204   1.47123   1.47736   1.48625   1.48907
 Alpha virt. eigenvalues --    1.50035   1.50250   1.51228   1.52407   1.52808
 Alpha virt. eigenvalues --    1.53307   1.54241   1.55032   1.55582   1.56315
 Alpha virt. eigenvalues --    1.57307   1.58158   1.58426   1.59146   1.59712
 Alpha virt. eigenvalues --    1.60459   1.61127   1.61603   1.62096   1.62838
 Alpha virt. eigenvalues --    1.63056   1.64943   1.65510   1.65963   1.66302
 Alpha virt. eigenvalues --    1.66983   1.67874   1.68247   1.69429   1.69791
 Alpha virt. eigenvalues --    1.70773   1.71402   1.71561   1.72570   1.72616
 Alpha virt. eigenvalues --    1.72955   1.74226   1.74824   1.75405   1.76407
 Alpha virt. eigenvalues --    1.76884   1.77267   1.77539   1.79597   1.80040
 Alpha virt. eigenvalues --    1.80689   1.80927   1.81541   1.81929   1.82998
 Alpha virt. eigenvalues --    1.83146   1.84402   1.85343   1.86782   1.87345
 Alpha virt. eigenvalues --    1.88268   1.89040   1.89896   1.90061   1.91901
 Alpha virt. eigenvalues --    1.92858   1.93327   1.93876   1.94328   1.95293
 Alpha virt. eigenvalues --    1.96682   1.97245   1.98568   2.00764   2.01285
 Alpha virt. eigenvalues --    2.01889   2.02397   2.03071   2.03719   2.04135
 Alpha virt. eigenvalues --    2.04544   2.05468   2.06118   2.06284   2.06687
 Alpha virt. eigenvalues --    2.07993   2.08312   2.08347   2.09210   2.09506
 Alpha virt. eigenvalues --    2.09995   2.10842   2.11044   2.11610   2.12517
 Alpha virt. eigenvalues --    2.12566   2.13306   2.13672   2.14017   2.14236
 Alpha virt. eigenvalues --    2.14515   2.15269   2.15649   2.16319   2.17221
 Alpha virt. eigenvalues --    2.17362   2.17463   2.18533   2.19310   2.19733
 Alpha virt. eigenvalues --    2.20042   2.20255   2.21664   2.23110   2.23580
 Alpha virt. eigenvalues --    2.24663   2.24744   2.25887   2.26351   2.26497
 Alpha virt. eigenvalues --    2.27350   2.28211   2.28820   2.29338   2.29814
 Alpha virt. eigenvalues --    2.30684   2.31841   2.32817   2.33513   2.34411
 Alpha virt. eigenvalues --    2.34510   2.34835   2.35507   2.36610   2.37317
 Alpha virt. eigenvalues --    2.38830   2.39583   2.40633   2.41105   2.42414
 Alpha virt. eigenvalues --    2.42738   2.43068   2.43802   2.44361   2.45074
 Alpha virt. eigenvalues --    2.45219   2.45744   2.46581   2.46665   2.48862
 Alpha virt. eigenvalues --    2.49195   2.49936   2.50272   2.50678   2.51774
 Alpha virt. eigenvalues --    2.52011   2.52540   2.52859   2.54271   2.54346
 Alpha virt. eigenvalues --    2.55388   2.55868   2.56070   2.56895   2.57117
 Alpha virt. eigenvalues --    2.58319   2.58805   2.59187   2.60240   2.60774
 Alpha virt. eigenvalues --    2.60960   2.61928   2.62519   2.64483   2.64871
 Alpha virt. eigenvalues --    2.65801   2.66374   2.67695   2.68848   2.69887
 Alpha virt. eigenvalues --    2.70126   2.70596   2.71058   2.72042   2.72790
 Alpha virt. eigenvalues --    2.74220   2.74786   2.75448   2.75672   2.76419
 Alpha virt. eigenvalues --    2.77405   2.79690   2.80295   2.80876   2.81850
 Alpha virt. eigenvalues --    2.82598   2.83060   2.83347   2.84027   2.85818
 Alpha virt. eigenvalues --    2.86545   2.87895   2.88465   2.88817   2.89501
 Alpha virt. eigenvalues --    2.91312   2.92289   2.92983   2.94076   2.94531
 Alpha virt. eigenvalues --    2.95305   2.95750   2.96340   2.96731   2.98410
 Alpha virt. eigenvalues --    2.98756   2.99638   3.01905   3.02005   3.02532
 Alpha virt. eigenvalues --    3.02771   3.04406   3.04928   3.06055   3.07910
 Alpha virt. eigenvalues --    3.08733   3.08904   3.09770   3.11781   3.12916
 Alpha virt. eigenvalues --    3.13085   3.14163   3.14629   3.15725   3.15907
 Alpha virt. eigenvalues --    3.16470   3.18637   3.19759   3.20426   3.20937
 Alpha virt. eigenvalues --    3.21967   3.22432   3.23424   3.24640   3.26971
 Alpha virt. eigenvalues --    3.29573   3.30544   3.30790   3.31381   3.32686
 Alpha virt. eigenvalues --    3.33355   3.33452   3.35934   3.39088   3.39504
 Alpha virt. eigenvalues --    3.40884   3.42692   3.46252   3.46926   3.55289
 Alpha virt. eigenvalues --    3.62635   3.68918   3.83748   3.87462   3.88299
 Alpha virt. eigenvalues --    3.90445   4.15358   4.18422   4.21865   4.24734
 Alpha virt. eigenvalues --    4.30332   4.32106   4.35625   4.37301   4.39091
 Alpha virt. eigenvalues --    4.40535   4.42427   4.44614   4.45827   4.48241
 Alpha virt. eigenvalues --    4.49126   4.50380   4.54411   4.55546   4.57369
 Alpha virt. eigenvalues --    4.59069   4.60075   4.61494   4.66423   4.67491
 Alpha virt. eigenvalues --    4.70378   4.72056   4.75118   4.76236   4.77377
 Alpha virt. eigenvalues --    4.81430   4.83622   4.89159   4.91395   4.92624
 Alpha virt. eigenvalues --    4.93723   4.96983   5.05865   5.09277   5.12329
 Alpha virt. eigenvalues --    5.13494   5.15906   5.17796
          Condensed to atoms (all electrons):
 Mulliken charges:
               1
     1  C    0.205976
     2  H    0.332305
     3  C   -0.306737
     4  H    0.298322
     5  C   -0.046656
     6  H    0.307719
     7  C   -0.226381
     8  C    0.820078
     9  O   -0.723666
    10  N   -0.968369
    11  H    0.490997
    12  H    0.432580
    13  C    0.227142
    14  H    0.357322
    15  N   -0.672341
    16  C    0.383817
    17  H    0.263223
    18  C    0.132766
    19  H    0.242162
    20  O   -0.803763
    21  H    0.500468
    22  C    0.104126
    23  H    0.243858
    24  O   -0.816342
    25  H    0.493751
    26  C    0.127005
    27  H    0.235150
    28  O   -0.704294
    29  C   -0.020122
    30  H    0.207442
    31  H    0.209889
    32  O   -0.749287
    33  P    1.632012
    34  O   -0.905890
    35  O   -0.878397
    36  O   -0.865432
    37  P    1.602773
    38  O   -0.883231
    39  O   -0.881576
    40  O   -0.763486
    41  C   -0.017873
    42  H    0.200982
    43  H    0.207473
    44  C    0.134602
    45  H    0.222824
    46  O   -0.719282
    47  C    0.089373
    48  H    0.241091
    49  O   -0.825657
    50  H    0.498667
    51  C    0.126978
    52  H    0.236002
    53  O   -0.816991
    54  H    0.491664
    55  C    0.406897
    56  H    0.237211
    57  N   -0.779135
    58  C    0.320694
    59  H    0.286160
    60  N   -0.632183
    61  C    0.056073
    62  C    0.631952
    63  N   -0.927684
    64  H    0.430004
    65  H    0.422247
    66  N   -0.700267
    67  C    0.280198
    68  H    0.238585
    69  N   -0.676983
    70  C    0.701467
 Sum of Mulliken charges =  -1.00000
 Mulliken charges with hydrogens summed into heavy atoms:
               1
     1  C    0.538281
     3  C   -0.008415
     5  C    0.261063
     7  C   -0.226381
     8  C    0.820078
     9  O   -0.723666
    10  N   -0.044793
    13  C    0.584464
    15  N   -0.672341
    16  C    0.647040
    18  C    0.374927
    20  O   -0.303294
    22  C    0.347984
    24  O   -0.322592
    26  C    0.362154
    28  O   -0.704294
    29  C    0.397209
    32  O   -0.749287
    33  P    1.632012
    34  O   -0.905890
    35  O   -0.878397
    36  O   -0.865432
    37  P    1.602773
    38  O   -0.883231
    39  O   -0.881576
    40  O   -0.763486
    41  C    0.390583
    44  C    0.357426
    46  O   -0.719282
    47  C    0.330464
    49  O   -0.326990
    51  C    0.362980
    53  O   -0.325327
    55  C    0.644108
    57  N   -0.779135
    58  C    0.606854
    60  N   -0.632183
    61  C    0.056073
    62  C    0.631952
    63  N   -0.075434
    66  N   -0.700267
    67  C    0.518783
    69  N   -0.676983
    70  C    0.701467
 DipInt: DoE/N= T F RetVal/Mat= T F Init=T NMatP=  1 IDeriv=0 Min/MaxMlt=  0  4
 Entering OneElI...
 OneElI was handed   132903555 working-precision words.
 Multipole integrals L=0 to 4 MinM= 0 MaxM= 0.
 Requested accuracy = 0.1000D-12
 PrtBox:  NBox=     1 Levels=  1 BoxLen=   46.38 SMaxX=       34.04
          Shift=           16.982742            8.408684            4.339943
 Box      1 Number                   0 centers from      1 to    230:
 ShPair: Thresh= 1.00D-13 NBox=     1 BxSize= 4.64D+01 RnKept= 2.31D+01
         NSMCal=                26565 NSMKep=               13072
 PrsmSu:  NPrtUS=   1 ThrOK=F IAlg=1 NPAlg=1 LenDen=           0.
 Prism:   IPart=     0 DynPar=F LinDyn=F Incr=         130.
 PRISM was handed   131554226 working-precision words and 13072 shell-pairs
 IPart=  0 NShTot=       13072 NBatch=         130 AvBLen=       100.6
 PrSmSu:  NxtVal=            131.
 Electronic moments (au):
       -344.00000000         -5.49706209         14.42293409         -1.68256525
     -29680.31138562      -7698.36111617      -1704.77511682        -77.78804738
        -21.04375703         18.92740627     -17639.88800386      -2370.14927793
      -1177.43796095     -13124.14270641     -48303.07868819      28078.79535515
       2749.06408347         53.01516239      -4883.09900284      10148.85666291
   -4646723.87363375    -317556.00454068     -23812.24204589    -329658.27143309
     -39006.60604531     -47786.99340413       4138.67856384       2852.97248406
      -4106.52845898    -617737.22549665    -155476.75614563     -39999.33101900
      11226.34507781      26291.60108152       1057.90084974
 Electronic spatial extent (au):  <R**2>=          39083.4476
 DipInt: DoE/N= F T RetVal/Mat= T F Init=T NMatP=  1 IDeriv=0 Min/MaxMlt=  0  4
 Nuclear    moments (au):
        343.00000000         -0.00000000         -0.00000000         -0.00000000
      29539.34896769       7448.59464448       1472.37063106          0.00000000
         -0.00006082          0.00021057      16207.88662580       3140.74224354
       1145.69583726      13049.80335612      49160.02303787     -27743.17091652
      -2693.06685411         -7.27391831       4737.09572048      -9965.23982909
    4552687.16684935     289863.37903549      17575.86502127     317042.07638304
      34052.48165806      47053.57046323      -2771.24131508      -3670.62344309
       4402.09886550     599980.43044988     135071.94326018      33696.09979166
      -9977.59659485     -25825.43068847      -1456.86439612
 Total      moments (au):
         -1.00000000         -5.49706209         14.42293409         -1.68256525
       -140.96241793       -249.76647169       -232.40448577        -77.78804738
        -21.04381786         18.92761684      -1432.00137807        770.59296561
        -31.74212370        -74.33935029        856.94434968        335.62443863
         55.99722936         45.74124408       -146.00328235        183.61683382
     -94036.70678440     -27692.62550519      -6236.37702462     -12616.19505005
      -4954.12438725       -733.42294090       1367.43724875       -817.65095903
        295.57040653     -17756.79504677     -20404.81288546      -6303.23122734
       1248.74848295        466.17039305       -398.96354638
 Traceless Quadrup. (au):
         66.74870720        -42.05534656        -24.69336064        -77.78804738
        -21.04381786         18.92761684
 Charge=             -1.0000 electrons
 Dipole moment (field-independent basis, Debye):
    X=            -13.9721    Y=             36.6594    Z=             -4.2767  Tot=             39.4642
 Quadrupole moment (field-independent basis, Debye-Ang):
   XX=           -189.5993   YY=           -335.9444   ZZ=           -312.5920
   XY=           -104.6276   XZ=            -28.3047   YZ=             25.4583
 Traceless Quadrupole moment (field-independent basis, Debye-Ang):
   XX=             89.7793   YY=            -56.5659   ZZ=            -33.2134
   XY=           -104.6276   XZ=            -28.3047   YZ=             25.4583
 Octapole moment (field-independent basis, Debye-Ang**2):
  XXX=          -1019.2433  YYY=            548.4784  ZZZ=            -22.5928  XYY=            -52.9119
  XXY=            609.9399  XXZ=            238.8845  XZZ=             39.8567  YZZ=             32.5569
  YYZ=           -103.9195  XYZ=            130.6914
 Hexadecapole moment (field-independent basis, Debye-Ang**3):
 XXXX=         -35418.7306 YYYY=         -10430.3700 ZZZZ=          -2348.9185 XXXY=          -4751.8637
 XXXZ=          -1865.9607 YYYX=           -276.2422 YYYZ=            515.0424 ZZZX=           -307.9665
 ZZZY=            111.3260 XXYY=          -6688.0600 XXZZ=          -7685.4305 YYZZ=          -2374.0990
 XXYZ=            470.3385 YYXZ=            175.5821 ZZXY=           -150.2688
 N-N= 6.068512064825D+03 E-N=-1.905980120835D+04  KE= 2.916513580192D+03
 Entering OneElI...
 OneElI was handed   133160645 working-precision words.
 Calculate electrostatic properties
    NBasis =   720  MinDer = 0  MaxDer = 0
    NGrid  =    70  NMatD  =   1
 Requested accuracy = 0.1000D-12
 PrtBox:  NBox=     1 Levels=  1 BoxLen=   38.65 SMaxX=       34.04
          Shift=           16.982742            8.408684            4.339943
 Box      1 Number                   0 centers from      1 to    230:
 ShPair: Thresh= 1.00D-13 NBox=     1 BxSize= 3.86D+01 RnKept= 2.10D+01
         NSMCal=                26565 NSMKep=               10660
 PrsmSu:  NPrtUS=   1 ThrOK=F IAlg=1 NPAlg=1 LenDen=           0.
 Prism:   IPart=     0 DynPar=F LinDyn=F Incr=         512.
 PRISM was handed   131967468 working-precision words and 10660 shell-pairs
 IPart=  0 NShTot=      746200 NBatch=       10662 AvBLen=        70.0
 PrSmSu:  NxtVal=            513.
 --------------------------------------------------------
       Center         ----      EFG at Nuclei      ----
                      3XX-RR        3YY-RR        3ZZ-RR
 --------------------------------------------------------
     1   Atom        0.147444      0.229809     -0.377253
     2   Atom        0.136534     -0.249724      0.113190
     3   Atom        0.149629      0.091947     -0.241576
     4   Atom       -0.186715      0.024739      0.161976
     5   Atom        0.308449      0.188652     -0.497101
     6   Atom       -0.206286      0.066294      0.139992
     7   Atom        0.126846      0.040533     -0.167379
     8   Atom        0.098807      0.183854     -0.282661
     9   Atom       -0.582550      1.187263     -0.604714
    10   Atom       -0.062128     -0.302079      0.364207
    11   Atom       -0.121168      0.135587     -0.014419
    12   Atom        0.199532     -0.332049      0.132516
    13   Atom        0.450410     -0.039248     -0.411162
    14   Atom       -0.212446      0.058322      0.154124
    15   Atom       -0.084031     -0.107551      0.191582
    16   Atom       -0.327451      0.211267      0.116184
    17   Atom        0.110347     -0.275225      0.164878
    18   Atom        0.083596      0.084126     -0.167722
    19   Atom        0.132343     -0.265369      0.133026
    20   Atom       -0.635571      0.597662      0.037909
    21   Atom       -0.350491      0.155052      0.195439
    22   Atom        0.106885     -0.242633      0.135748
    23   Atom        0.036029     -0.035150     -0.000879
    24   Atom        0.943370     -1.695873      0.752503
    25   Atom        0.115868     -0.132466      0.016597
    26   Atom       -0.311645      0.249562      0.062083
    27   Atom       -0.024479     -0.063170      0.087649
    28   Atom       -1.652134      1.580980      0.071154
    29   Atom        0.004714     -0.166868      0.162155
    30   Atom        0.153687      0.144124     -0.297811
    31   Atom       -0.233611      0.141768      0.091844
    32   Atom        0.359886     -1.281778      0.921891
    33   Atom        0.096617     -0.355937      0.259320
    34   Atom        0.313346      0.354006     -0.667352
    35   Atom       -0.522109      0.165934      0.356176
    36   Atom       -0.342700      0.029509      0.313190
    37   Atom       -0.240445      0.033292      0.207154
    38   Atom        0.145349      0.431656     -0.577005
    39   Atom        0.098927     -0.532815      0.433889
    40   Atom       -0.015749     -0.363023      0.378771
    41   Atom       -0.017733     -0.236719      0.254452
    42   Atom        0.137927      0.055032     -0.192960
    43   Atom        0.051430     -0.023918     -0.027512
    44   Atom        0.058263     -0.225485      0.167222
    45   Atom        0.140919      0.015154     -0.156072
    46   Atom       -0.896881     -0.155644      1.052524
    47   Atom       -0.006363     -0.058298      0.064662
    48   Atom        0.035245      0.047318     -0.082563
    49   Atom        0.567335      0.027760     -0.595095
    50   Atom        0.162577      0.147340     -0.309917
    51   Atom       -0.217722      0.111647      0.106075
    52   Atom        0.034698      0.047917     -0.082615
    53   Atom       -0.740594      0.196183      0.544411
    54   Atom        0.130032     -0.134736      0.004704
    55   Atom       -0.068174     -0.123801      0.191974
    56   Atom       -0.094194      0.087442      0.006751
    57   Atom       -0.038935     -0.316351      0.355286
    58   Atom        0.076367      0.110711     -0.187078
    59   Atom       -0.167355      0.097426      0.069929
    60   Atom       -0.250672      0.396561     -0.145888
    61   Atom       -0.053211      0.087449     -0.034238
    62   Atom        0.073454      0.163744     -0.237197
    63   Atom        0.049257     -0.394151      0.344894
    64   Atom       -0.008830      0.155925     -0.147096
    65   Atom       -0.199064     -0.018370      0.217434
    66   Atom        0.147164      0.127078     -0.274242
    67   Atom        0.075781      0.129232     -0.205013
    68   Atom       -0.133875      0.134245     -0.000370
    69   Atom       -0.428661      0.653117     -0.224456
    70   Atom       -0.047589      0.198691     -0.151103
 --------------------------------------------------------
                        XY            XZ            YZ
 --------------------------------------------------------
     1   Atom        0.179406      0.085866      0.256294
     2   Atom       -0.036040     -0.013602     -0.150284
     3   Atom       -0.049847      0.000457      0.144918
     4   Atom        0.204542      0.059834     -0.047515
     5   Atom        0.016093      0.049419      0.322188
     6   Atom       -0.180577     -0.090277     -0.041552
     7   Atom       -0.019685      0.010337      0.093915
     8   Atom       -0.091031      0.347426      0.231115
     9   Atom       -0.811456     -0.329788      0.109630
    10   Atom        0.283379     -0.432955     -0.270563
    11   Atom       -0.079807     -0.284770     -0.094963
    12   Atom       -0.021836     -0.038242     -0.231987
    13   Atom       -0.026479      0.016844      0.160844
    14   Atom        0.173668      0.052325     -0.036940
    15   Atom        0.035910     -0.032837     -0.149075
    16   Atom       -0.202643      0.127236     -0.184111
    17   Atom        0.072242     -0.004720      0.018449
    18   Atom        0.152757      0.087502     -0.173302
    19   Atom       -0.083631      0.015333      0.061189
    20   Atom       -0.202038      1.279151     -1.000423
    21   Atom       -0.238917      0.176691      0.036354
    22   Atom       -0.165206      0.023508     -0.132723
    23   Atom        0.146281     -0.137860      0.170769
    24   Atom       -0.107152     -0.913764      0.295972
    25   Atom        0.210150     -0.209671      0.282877
    26   Atom        0.086204     -0.277488      0.024970
    27   Atom       -0.184628      0.107657      0.122444
    28   Atom        0.733626      0.267985     -0.456044
    29   Atom       -0.270822      0.177411      0.187194
    30   Atom       -0.007320      0.023871     -0.051392
    31   Atom        0.027696     -0.160064      0.018587
    32   Atom       -0.599575      0.629370      0.381573
    33   Atom        0.350957     -0.702296      0.022614
    34   Atom        0.113632      0.404195     -0.205025
    35   Atom       -0.465287      0.336076      0.223633
    36   Atom        0.783116     -0.789183      0.195998
    37   Atom        0.632168      0.496269      0.304013
    38   Atom       -0.077639     -0.515692     -0.152808
    39   Atom       -0.532344     -0.109900     -0.212245
    40   Atom       -1.085808      0.937886      0.232354
    41   Atom       -0.300612      0.076902      0.055198
    42   Atom       -0.033022     -0.042520     -0.185865
    43   Atom        0.131045     -0.134425      0.182236
    44   Atom       -0.238035      0.078234      0.161214
    45   Atom       -0.033859     -0.048756     -0.207050
    46   Atom       -1.199071     -0.852327      0.470712
    47   Atom        0.225115      0.100810     -0.203165
    48   Atom       -0.103446      0.176708      0.153043
    49   Atom        0.781158      1.396092     -0.110014
    50   Atom       -0.066010      0.245651      0.209138
    51   Atom        0.109330     -0.149586      0.118982
    52   Atom        0.116980      0.159529     -0.155489
    53   Atom        1.356023     -0.468171     -0.695591
    54   Atom        0.217834      0.128885     -0.309843
    55   Atom       -0.097439     -0.292051     -0.133286
    56   Atom        0.104423      0.192200     -0.090386
    57   Atom       -0.152125      0.491995     -0.199435
    58   Atom        0.207263     -0.200562     -0.021072
    59   Atom       -0.129193      0.186854      0.067267
    60   Atom       -0.384947     -0.208295      0.469626
    61   Atom        0.028740      0.034174      0.006449
    62   Atom        0.147020     -0.358869      0.109421
    63   Atom       -0.244689      0.530912     -0.379596
    64   Atom        0.061968      0.312681     -0.119785
    65   Atom       -0.300098      0.075819      0.013166
    66   Atom        0.604197     -0.122849     -0.297967
    67   Atom        0.051387     -0.363435      0.129816
    68   Atom        0.075396      0.221309     -0.059168
    69   Atom       -0.163791      0.046896      0.362165
    70   Atom       -0.059021     -0.198296      0.191053
 --------------------------------------------------------


 ---------------------------------------------------------------------------------
              Nuclear Quadrupole Coupling Constant in Principal Axis System
 ---------------------------------------------------------------------------------

       Atom             a.u.   MegaHertz   Gauss  10(-4) cm-1        Axes

              Baa    -0.4903     2.355     0.840     0.785 -0.5736  0.8185 -0.0314
    10 N(14)  Bbb    -0.2789     1.339     0.478     0.447  0.6307  0.4658  0.6206
              Bcc     0.7691    -3.694    -1.318    -1.232 -0.5227 -0.3362  0.7835
 
              Baa    -0.1741     0.836     0.298     0.279 -0.2345  0.9074  0.3488
    15 N(14)  Bbb    -0.0847     0.407     0.145     0.136  0.9637  0.1698  0.2061
              Bcc     0.2589    -1.243    -0.444    -0.415 -0.1278 -0.3845  0.9142
 
              Baa    -0.3875     1.861     0.664     0.621  0.6433  0.7303 -0.2300
    57 N(14)  Bbb    -0.3596     1.727     0.616     0.576 -0.5348  0.6435  0.5476
              Bcc     0.7472    -3.588    -1.280    -1.197  0.5479 -0.2292  0.8045
 
              Baa    -0.4334     2.081     0.743     0.694  0.7674  0.5461 -0.3359
    60 N(14)  Bbb    -0.4094     1.966     0.702     0.656  0.5225 -0.2290  0.8213
              Bcc     0.8427    -4.047    -1.444    -1.350 -0.3715  0.8058  0.4611
 
              Baa    -0.5557     2.669     0.952     0.890  0.0668  0.9329  0.3539
    63 N(14)  Bbb    -0.3488     1.675     0.598     0.559  0.8229  0.1490 -0.5483
              Bcc     0.9044    -4.344    -1.550    -1.449  0.5642 -0.3278  0.7578
 
              Baa    -0.5457     2.621     0.935     0.874 -0.5050  0.6857  0.5241
    66 N(14)  Bbb    -0.2768     1.329     0.474     0.443  0.5449 -0.2177  0.8098
              Bcc     0.8225    -3.950    -1.410    -1.318  0.6694  0.6946 -0.2637
 
              Baa    -0.5080     2.440     0.871     0.814  0.8356  0.2675 -0.4798
    69 N(14)  Bbb    -0.2909     1.397     0.499     0.466  0.5377 -0.2191  0.8142
              Bcc     0.7990    -3.837    -1.369    -1.280 -0.1127  0.9383  0.3269
 

 ---------------------------------------------------------------------------------

 No NMR shielding tensors so no spin-rotation constants.
 Leave Link  601 at Tue Dec 13 22:09:36 2022, MaxMem=   134217728 cpu:         0.5
 FitSet:  NAtFit=    70 NAtPot=    70 NAtFrz=     0 MDM=    74 TotChg=  -1.00000
 Merz-Kollman atomic radii used.
 Atom Element Radius
    1     6    1.50
    2     1    1.20
    3     6    1.50
    4     1    1.20
    5     6    1.50
    6     1    1.20
    7     6    1.50
    8     6    1.50
    9     8    1.40
   10     7    1.50
   11     1    1.20
   12     1    1.20
   13     6    1.50
   14     1    1.20
   15     7    1.50
   16     6    1.50
   17     1    1.20
   18     6    1.50
   19     1    1.20
   20     8    1.40
   21     1    1.20
   22     6    1.50
   23     1    1.20
   24     8    1.40
   25     1    1.20
   26     6    1.50
   27     1    1.20
   28     8    1.40
   29     6    1.50
   30     1    1.20
   31     1    1.20
   32     8    1.40
   33    15    1.80
   34     8    1.40
   35     8    1.40
   36     8    1.40
   37    15    1.80
   38     8    1.40
   39     8    1.40
   40     8    1.40
   41     6    1.50
   42     1    1.20
   43     1    1.20
   44     6    1.50
   45     1    1.20
   46     8    1.40
   47     6    1.50
   48     1    1.20
   49     8    1.40
   50     1    1.20
   51     6    1.50
   52     1    1.20
   53     8    1.40
   54     1    1.20
   55     6    1.50
   56     1    1.20
   57     7    1.50
   58     6    1.50
   59     1    1.20
   60     7    1.50
   61     6    1.50
   62     6    1.50
   63     7    1.50
   64     1    1.20
   65     1    1.20
   66     7    1.50
   67     6    1.50
   68     1    1.20
   69     7    1.50
   70     6    1.50
 Generate VDW surfaces: Layer= 4 Dens= 6 Start= 1.400 Inc= 0.200

 **********************************************************************

            Electrostatic Properties Using The SCF Density

 **********************************************************************

       Atomic Center    1 is at  -6.817120  2.736289 -0.017356
       Atomic Center    2 is at  -6.727573  3.738852  0.347829
       Atomic Center    3 is at  -8.029880  2.154853 -0.278853
       Atomic Center    4 is at  -8.930434  2.710634 -0.111745
       Atomic Center    5 is at  -8.053627  0.863673 -0.773026
       Atomic Center    6 is at  -8.986880  0.390200 -1.005852
       Atomic Center    7 is at  -6.861995  0.169770 -0.966970
       Atomic Center    8 is at  -6.927758 -1.218751 -1.536142
       Atomic Center    9 is at  -7.899615 -1.536219 -2.197861
       Atomic Center   10 is at  -5.920102 -2.047145 -1.295482
       Atomic Center   11 is at  -5.163001 -1.864578 -0.666567
       Atomic Center   12 is at  -5.980116 -2.966338 -1.680630
       Atomic Center   13 is at  -5.679863  0.806382 -0.676262
       Atomic Center   14 is at  -4.719153  0.357325 -0.808617
       Atomic Center   15 is at  -5.676286  2.065265 -0.221581
       Atomic Center   16 is at  -4.394865  2.727392  0.138988
       Atomic Center   17 is at  -4.588199  3.787529  0.090165
       Atomic Center   18 is at  -3.873578  2.318346  1.518385
       Atomic Center   19 is at  -4.077130  1.268142  1.676907
       Atomic Center   20 is at  -4.395297  3.093165  2.556772
       Atomic Center   21 is at  -5.255085  2.759845  2.790040
       Atomic Center   22 is at  -2.364095  2.504922  1.354023
       Atomic Center   23 is at  -1.818154  1.819597  1.982334
       Atomic Center   24 is at  -1.922125  3.789015  1.718597
       Atomic Center   25 is at  -2.335080  4.454366  1.177946
       Atomic Center   26 is at  -2.142804  2.206452 -0.137734
       Atomic Center   27 is at  -1.480614  2.948528 -0.561094
       Atomic Center   28 is at  -3.424523  2.344518 -0.768794
       Atomic Center   29 is at  -1.579755  0.841288 -0.454805
       Atomic Center   30 is at  -1.528635  0.709925 -1.526054
       Atomic Center   31 is at  -0.583354  0.762845 -0.039102
       Atomic Center   32 is at  -2.425321 -0.144064  0.110126
       Atomic Center   33 is at  -2.176832 -1.713180 -0.093727
       Atomic Center   34 is at  -1.662983 -1.990850 -1.454977
       Atomic Center   35 is at  -3.402964 -2.390143  0.392783
       Atomic Center   36 is at  -0.981376 -1.925471  0.981559
       Atomic Center   37 is at   0.023767 -3.184495  1.173291
       Atomic Center   38 is at   0.697329 -2.961765  2.474214
       Atomic Center   39 is at  -0.694434 -4.449684  0.900447
       Atomic Center   40 is at   1.060443 -2.983048 -0.033472
       Atomic Center   41 is at   1.830903 -1.801475 -0.171608
       Atomic Center   42 is at   1.949997 -1.303713  0.780960
       Atomic Center   43 is at   1.328061 -1.133090 -0.856360
       Atomic Center   44 is at   3.181970 -2.190415 -0.743583
       Atomic Center   45 is at   3.037268 -2.783914 -1.636005
       Atomic Center   46 is at   3.862951 -0.986725 -1.094287
       Atomic Center   47 is at   4.092627 -2.922902  0.244506
       Atomic Center   48 is at   3.534178 -3.423847  1.018902
       Atomic Center   49 is at   4.889327 -3.913590 -0.366148
       Atomic Center   50 is at   5.236056 -3.604091 -1.196952
       Atomic Center   51 is at   4.951652 -1.786209  0.799438
       Atomic Center   52 is at   4.410041 -1.272709  1.580691
       Atomic Center   53 is at   6.177821 -2.189684  1.336788
       Atomic Center   54 is at   6.521479 -2.893281  0.794460
       Atomic Center   55 is at   5.090937 -0.875210 -0.420095
       Atomic Center   56 is at   5.900872 -1.214578 -1.048039
       Atomic Center   57 is at   5.350195  0.512207 -0.131612
       Atomic Center   58 is at   4.564572  1.360129  0.607082
       Atomic Center   59 is at   3.678056  1.008240  1.091482
       Atomic Center   60 is at   4.992870  2.568696  0.644004
       Atomic Center   61 is at   6.143396  2.544417 -0.127975
       Atomic Center   62 is at   7.070134  3.528574 -0.486017
       Atomic Center   63 is at   6.949849  4.814428 -0.110584
       Atomic Center   64 is at   6.350647  5.028260  0.656939
       Atomic Center   65 is at   7.753673  5.395940 -0.213600
       Atomic Center   66 is at   8.092840  3.180262 -1.266513
       Atomic Center   67 is at   8.182444  1.918930 -1.669280
       Atomic Center   68 is at   9.025445  1.697054 -2.296599
       Atomic Center   69 is at   7.381922  0.912552 -1.401189
       Atomic Center   70 is at   6.368491  1.280297 -0.619411
      ESP Fit Center   71 is at  -6.817120  2.736289  2.082644
      ESP Fit Center   72 is at  -7.021965  3.091091  2.042293
      ESP Fit Center   73 is at  -7.226810  2.736289  2.042293
      ESP Fit Center   74 is at  -7.021965  2.381487  2.042293
      ESP Fit Center   75 is at  -7.513088  3.138106  1.922791
      ESP Fit Center   76 is at  -7.620755  2.736289  1.922791
      ESP Fit Center   77 is at  -7.513088  2.334471  1.922791
      ESP Fit Center   78 is at  -7.218938  2.040320  1.922791
      ESP Fit Center   79 is at  -6.817120  1.932654  1.922791
      ESP Fit Center   80 is at  -7.809066  3.350476  1.728730
      ESP Fit Center   81 is at  -7.963952  2.950669  1.728730
      ESP Fit Center   82 is at  -7.520212  1.805244  1.728730
      ESP Fit Center   83 is at  -7.136402  1.614129  1.728730
      ESP Fit Center   84 is at  -6.709471  1.574568  1.728730
      ESP Fit Center   85 is at  -8.066318  3.539100  1.467568
      ESP Fit Center   86 is at  -7.028447  1.266479  1.467568
      ESP Fit Center   87 is at  -7.905905  4.342127 -0.820991
      ESP Fit Center   88 is at  -5.825230  4.173290 -1.184054
      ESP Fit Center   89 is at  -6.197949  4.368908 -1.184054
      ESP Fit Center   90 is at  -6.606653  4.469644 -1.184054
      ESP Fit Center   91 is at  -7.027587  4.469644 -1.184054
      ESP Fit Center   92 is at  -7.436291  4.368908 -1.184054
      ESP Fit Center   93 is at  -7.809010  4.173290 -1.184054
      ESP Fit Center   94 is at  -5.844701  3.858520 -1.502280
      ESP Fit Center   95 is at  -6.200260  4.087023 -1.502280
      ESP Fit Center   96 is at  -6.605793  4.206099 -1.502280
      ESP Fit Center   97 is at  -7.028447  4.206099 -1.502280
      ESP Fit Center   98 is at  -7.433980  4.087023 -1.502280
      ESP Fit Center   99 is at  -7.789539  3.858520 -1.502280
      ESP Fit Center  100 is at  -5.954920  3.522288 -1.763442
      ESP Fit Center  101 is at  -6.297078  3.780674 -1.763442
      ESP Fit Center  102 is at  -6.709471  3.898009 -1.763442
      ESP Fit Center  103 is at  -7.136402  3.858448 -1.763442
      ESP Fit Center  104 is at  -7.520212  3.667334 -1.763442
      ESP Fit Center  105 is at  -6.415302  3.432257 -1.957503
      ESP Fit Center  106 is at  -6.817120  3.539924 -1.957503
      ESP Fit Center  107 is at  -7.218938  3.432257 -1.957503
      ESP Fit Center  108 is at  -6.407430  2.736289 -2.077005
      ESP Fit Center  109 is at  -6.612275  3.091091 -2.077005
      ESP Fit Center  110 is at  -7.021965  3.091091 -2.077005
      ESP Fit Center  111 is at  -6.612275  2.381487 -2.077005
      ESP Fit Center  112 is at  -6.817120  2.736289 -2.117356
      ESP Fit Center  113 is at  -6.727573  3.738852  2.027829
      ESP Fit Center  114 is at  -6.510165  4.115414  1.970584
      ESP Fit Center  115 is at  -6.944981  4.115414  1.970584
      ESP Fit Center  116 is at  -7.162389  3.738852  1.970584
      ESP Fit Center  117 is at  -6.000112  4.158852  1.802752
      ESP Fit Center  118 is at  -6.307573  4.466313  1.802752
      ESP Fit Center  119 is at  -6.727573  4.578852  1.802752
      ESP Fit Center  120 is at  -7.147573  4.466313  1.802752
      ESP Fit Center  121 is at  -7.455034  4.158852  1.802752
      ESP Fit Center  122 is at  -7.567573  3.738852  1.802752
      ESP Fit Center  123 is at  -5.849675  4.539161  1.535768
      ESP Fit Center  124 is at  -6.198063  4.802252  1.535768
      ESP Fit Center  125 is at  -6.617964  4.921724  1.535768
      ESP Fit Center  126 is at  -7.052668  4.881442  1.535768
      ESP Fit Center  127 is at  -7.443466  4.686848  1.535768
      ESP Fit Center  128 is at  -7.737579  4.364221  1.535768
      ESP Fit Center  129 is at  -7.895285  3.957135  1.535768
      ESP Fit Center  130 is at  -5.820444  4.876356  1.187829
      ESP Fit Center  131 is at  -6.196030  5.093201  1.187829
      ESP Fit Center  132 is at  -6.618846  5.189706  1.187829
      ESP Fit Center  133 is at  -7.051324  5.157297  1.187829
      ESP Fit Center  134 is at  -7.455034  4.998852  1.187829
      ESP Fit Center  135 is at  -7.794107  4.728451  1.187829
      ESP Fit Center  136 is at  -8.038413  4.370119  1.187829
      ESP Fit Center  137 is at  -8.166245  3.955697  1.187829
      ESP Fit Center  138 is at  -5.916195  5.144199  0.782645
      ESP Fit Center  139 is at  -6.307573  5.306313  0.782645
      ESP Fit Center  140 is at  -6.727573  5.361607  0.782645
      ESP Fit Center  141 is at  -7.147573  5.306313  0.782645
      ESP Fit Center  142 is at  -7.538951  5.144199  0.782645
      ESP Fit Center  143 is at  -7.875034  4.886313  0.782645
      ESP Fit Center  144 is at  -8.132920  4.550230  0.782645
      ESP Fit Center  145 is at  -8.295034  4.158852  0.782645
      ESP Fit Center  146 is at  -5.827384  5.157323  0.347829
      ESP Fit Center  147 is at  -6.208424  5.336627  0.347829
      ESP Fit Center  148 is at  -6.622085  5.415537  0.347829
      ESP Fit Center  149 is at  -7.042374  5.389094  0.347829
      ESP Fit Center  150 is at  -7.442882  5.258961  0.347829
      ESP Fit Center  151 is at  -7.798445  5.033314  0.347829
      ESP Fit Center  152 is at  -8.086722  4.726331  0.347829
      ESP Fit Center  153 is at  -8.289597  4.357301  0.347829
      ESP Fit Center  154 is at  -5.916195  5.144199 -0.086987
      ESP Fit Center  155 is at  -6.307573  5.306313 -0.086987
      ESP Fit Center  156 is at  -6.727573  5.361607 -0.086987
      ESP Fit Center  157 is at  -7.147573  5.306313 -0.086987
      ESP Fit Center  158 is at  -7.538951  5.144199 -0.086987
      ESP Fit Center  159 is at  -7.875034  4.886313 -0.086987
      ESP Fit Center  160 is at  -8.132920  4.550230 -0.086987
      ESP Fit Center  161 is at  -5.820444  4.876356 -0.492171
      ESP Fit Center  162 is at  -6.196030  5.093201 -0.492171
      ESP Fit Center  163 is at  -6.618846  5.189706 -0.492171
      ESP Fit Center  164 is at  -7.051324  5.157297 -0.492171
      ESP Fit Center  165 is at  -7.455034  4.998852 -0.492171
      ESP Fit Center  166 is at  -7.794107  4.728451 -0.492171
      ESP Fit Center  167 is at  -5.849675  4.539161 -0.840110
      ESP Fit Center  168 is at  -6.198063  4.802252 -0.840110
      ESP Fit Center  169 is at  -6.617964  4.921724 -0.840110
      ESP Fit Center  170 is at  -7.052668  4.881442 -0.840110
      ESP Fit Center  171 is at  -7.443466  4.686848 -0.840110
      ESP Fit Center  172 is at  -6.307573  4.466313 -1.107094
      ESP Fit Center  173 is at  -6.727573  4.578852 -1.107094
      ESP Fit Center  174 is at  -8.029880  2.154853  1.821147
      ESP Fit Center  175 is at  -8.234725  2.509655  1.780796
      ESP Fit Center  176 is at  -8.439570  2.154853  1.780796
      ESP Fit Center  177 is at  -8.234725  1.800051  1.780796
      ESP Fit Center  178 is at  -7.825035  1.800051  1.780796
      ESP Fit Center  179 is at  -8.431698  2.850821  1.661294
      ESP Fit Center  180 is at  -8.725848  2.556670  1.661294
      ESP Fit Center  181 is at  -8.833515  2.154853  1.661294
      ESP Fit Center  182 is at  -8.725848  1.753035  1.661294
      ESP Fit Center  183 is at  -8.431698  1.458884  1.661294
      ESP Fit Center  184 is at  -8.029880  1.351218  1.661294
      ESP Fit Center  185 is at  -7.628062  1.458884  1.661294
      ESP Fit Center  186 is at  -8.349162  3.277012  1.467233
      ESP Fit Center  187 is at  -9.176712  1.940473  1.467233
      ESP Fit Center  188 is at  -9.021826  1.540666  1.467233
      ESP Fit Center  189 is at  -8.732972  1.223808  1.467233
      ESP Fit Center  190 is at  -8.349162  1.032693  1.467233
      ESP Fit Center  191 is at  -7.922231  0.993132  1.467233
      ESP Fit Center  192 is at  -7.509838  1.110468  1.467233
      ESP Fit Center  193 is at  -9.454654  1.736501  1.206071
      ESP Fit Center  194 is at  -9.279078  1.352042  1.206071
      ESP Fit Center  195 is at  -9.002299  1.032622  1.206071
      ESP Fit Center  196 is at  -7.057461  1.032622  1.206071
      ESP Fit Center  197 is at  -9.575963  1.343406  0.887844
      ESP Fit Center  198 is at  -9.336844  0.996984  0.887844
      ESP Fit Center  199 is at  -9.692309  1.154603  0.524782
      ESP Fit Center  200 is at  -8.343761  4.069441 -1.082488
      ESP Fit Center  201 is at  -8.240347  3.888208 -1.445551
      ESP Fit Center  202 is at  -8.649051  3.787472 -1.445551
      ESP Fit Center  203 is at  -7.818553  3.624663 -1.763777
      ESP Fit Center  204 is at  -8.241207  3.624663 -1.763777
      ESP Fit Center  205 is at  -8.646740  3.505587 -1.763777
      ESP Fit Center  206 is at  -9.002299  3.277084 -1.763777
      ESP Fit Center  207 is at  -9.279078  2.957664 -1.763777
      ESP Fit Center  208 is at  -9.454654  2.573204 -1.763777
      ESP Fit Center  209 is at  -9.514804  2.154853 -1.763777
      ESP Fit Center  210 is at  -7.509838  3.199238 -2.024939
      ESP Fit Center  211 is at  -7.922231  3.316573 -2.024939
      ESP Fit Center  212 is at  -8.349162  3.277012 -2.024939
      ESP Fit Center  213 is at  -8.732972  3.085898 -2.024939
      ESP Fit Center  214 is at  -9.021826  2.769040 -2.024939
      ESP Fit Center  215 is at  -9.176712  2.369233 -2.024939
      ESP Fit Center  216 is at  -7.226245  2.154853 -2.219000
      ESP Fit Center  217 is at  -7.333911  2.556670 -2.219000
      ESP Fit Center  218 is at  -7.628062  2.850821 -2.219000
      ESP Fit Center  219 is at  -8.029880  2.958488 -2.219000
      ESP Fit Center  220 is at  -8.431698  2.850821 -2.219000
      ESP Fit Center  221 is at  -8.725848  2.556670 -2.219000
      ESP Fit Center  222 is at  -7.825035  2.509655 -2.338502
      ESP Fit Center  223 is at  -8.234725  2.509655 -2.338502
      ESP Fit Center  224 is at  -8.930434  2.710634  1.568255
      ESP Fit Center  225 is at  -8.713026  3.087196  1.511010
      ESP Fit Center  226 is at  -9.147842  3.087196  1.511010
      ESP Fit Center  227 is at  -9.365250  2.710634  1.511010
      ESP Fit Center  228 is at  -9.147842  2.334072  1.511010
      ESP Fit Center  229 is at  -8.510434  3.438095  1.343178
      ESP Fit Center  230 is at  -8.930434  3.550634  1.343178
      ESP Fit Center  231 is at  -9.350434  3.438095  1.343178
      ESP Fit Center  232 is at  -9.657895  3.130634  1.343178
      ESP Fit Center  233 is at  -9.770434  2.710634  1.343178
      ESP Fit Center  234 is at  -9.657895  2.290634  1.343178
      ESP Fit Center  235 is at  -8.400924  3.774034  1.076194
      ESP Fit Center  236 is at  -8.820825  3.893506  1.076194
      ESP Fit Center  237 is at  -9.255529  3.853224  1.076194
      ESP Fit Center  238 is at  -9.646327  3.658630  1.076194
      ESP Fit Center  239 is at  -9.940440  3.336003  1.076194
      ESP Fit Center  240 is at -10.098146  2.928917  1.076194
      ESP Fit Center  241 is at -10.098146  2.492351  1.076194
      ESP Fit Center  242 is at  -9.940440  2.085264  1.076194
      ESP Fit Center  243 is at  -9.646327  1.762638  1.076194
      ESP Fit Center  244 is at  -8.398891  4.064983  0.728255
      ESP Fit Center  245 is at  -8.821707  4.161488  0.728255
      ESP Fit Center  246 is at  -9.254185  4.129079  0.728255
      ESP Fit Center  247 is at  -9.657895  3.970634  0.728255
      ESP Fit Center  248 is at  -9.996968  3.700233  0.728255
      ESP Fit Center  249 is at -10.241274  3.341901  0.728255
      ESP Fit Center  250 is at -10.369106  2.927479  0.728255
      ESP Fit Center  251 is at -10.369106  2.493789  0.728255
      ESP Fit Center  252 is at -10.241274  2.079367  0.728255
      ESP Fit Center  253 is at  -9.996968  1.721035  0.728255
      ESP Fit Center  254 is at  -8.510434  4.278095  0.323071
      ESP Fit Center  255 is at  -8.930434  4.333389  0.323071
      ESP Fit Center  256 is at  -9.350434  4.278095  0.323071
      ESP Fit Center  257 is at  -9.741812  4.115981  0.323071
      ESP Fit Center  258 is at -10.077895  3.858095  0.323071
      ESP Fit Center  259 is at -10.335781  3.522012  0.323071
      ESP Fit Center  260 is at -10.497895  3.130634  0.323071
      ESP Fit Center  261 is at -10.553189  2.710634  0.323071
      ESP Fit Center  262 is at -10.497895  2.290634  0.323071
      ESP Fit Center  263 is at -10.335781  1.899256  0.323071
      ESP Fit Center  264 is at -10.077895  1.563173  0.323071
      ESP Fit Center  265 is at  -8.411285  4.308409 -0.111745
      ESP Fit Center  266 is at  -8.824946  4.387319 -0.111745
      ESP Fit Center  267 is at  -9.245235  4.360876 -0.111745
      ESP Fit Center  268 is at  -9.645743  4.230743 -0.111745
      ESP Fit Center  269 is at -10.001306  4.005096 -0.111745
      ESP Fit Center  270 is at -10.289583  3.698113 -0.111745
      ESP Fit Center  271 is at -10.492458  3.329083 -0.111745
      ESP Fit Center  272 is at -10.597187  2.921194 -0.111745
      ESP Fit Center  273 is at -10.597187  2.500074 -0.111745
      ESP Fit Center  274 is at -10.492458  2.092185 -0.111745
      ESP Fit Center  275 is at -10.289583  1.723155 -0.111745
      ESP Fit Center  276 is at -10.001306  1.416172 -0.111745
      ESP Fit Center  277 is at  -8.510434  4.278095 -0.546561
      ESP Fit Center  278 is at  -8.930434  4.333389 -0.546561
      ESP Fit Center  279 is at  -9.350434  4.278095 -0.546561
      ESP Fit Center  280 is at  -9.741812  4.115981 -0.546561
      ESP Fit Center  281 is at -10.077895  3.858095 -0.546561
      ESP Fit Center  282 is at -10.335781  3.522012 -0.546561
      ESP Fit Center  283 is at -10.497895  3.130634 -0.546561
      ESP Fit Center  284 is at -10.553189  2.710634 -0.546561
      ESP Fit Center  285 is at -10.497895  2.290634 -0.546561
      ESP Fit Center  286 is at -10.335781  1.899256 -0.546561
      ESP Fit Center  287 is at  -8.821707  4.161488 -0.951745
      ESP Fit Center  288 is at  -9.254185  4.129079 -0.951745
      ESP Fit Center  289 is at  -9.657895  3.970634 -0.951745
      ESP Fit Center  290 is at  -9.996968  3.700233 -0.951745
      ESP Fit Center  291 is at -10.241274  3.341901 -0.951745
      ESP Fit Center  292 is at -10.369106  2.927479 -0.951745
      ESP Fit Center  293 is at -10.369106  2.493789 -0.951745
      ESP Fit Center  294 is at -10.241274  2.079367 -0.951745
      ESP Fit Center  295 is at  -8.820825  3.893506 -1.299684
      ESP Fit Center  296 is at  -9.255529  3.853224 -1.299684
      ESP Fit Center  297 is at  -9.646327  3.658630 -1.299684
      ESP Fit Center  298 is at  -9.940440  3.336003 -1.299684
      ESP Fit Center  299 is at -10.098146  2.928917 -1.299684
      ESP Fit Center  300 is at -10.098146  2.492351 -1.299684
      ESP Fit Center  301 is at  -9.940440  2.085264 -1.299684
      ESP Fit Center  302 is at  -8.930434  3.550634 -1.566668
      ESP Fit Center  303 is at  -9.350434  3.438095 -1.566668
      ESP Fit Center  304 is at  -9.657895  3.130634 -1.566668
      ESP Fit Center  305 is at  -9.770434  2.710634 -1.566668
      ESP Fit Center  306 is at  -8.258472  0.508871  1.286623
      ESP Fit Center  307 is at  -7.848782  0.508871  1.286623
      ESP Fit Center  308 is at  -8.857262  0.863673  1.167121
      ESP Fit Center  309 is at  -8.749595  0.461855  1.167121
      ESP Fit Center  310 is at  -8.455445  0.167704  1.167121
      ESP Fit Center  311 is at  -8.053627  0.060038  1.167121
      ESP Fit Center  312 is at  -7.651809  0.167704  1.167121
      ESP Fit Center  313 is at  -7.357658  0.461855  1.167121
      ESP Fit Center  314 is at  -9.200459  0.649293  0.973060
      ESP Fit Center  315 is at  -9.045573  0.249486  0.973060
      ESP Fit Center  316 is at  -8.756719 -0.067372  0.973060
      ESP Fit Center  317 is at  -8.372909 -0.258487  0.973060
      ESP Fit Center  318 is at  -7.945978 -0.298048  0.973060
      ESP Fit Center  319 is at  -9.538551  0.863673  0.711898
      ESP Fit Center  320 is at  -9.478401  0.445321  0.711898
      ESP Fit Center  321 is at  -9.302825  0.060862  0.711898
      ESP Fit Center  322 is at  -9.026046 -0.258558  0.711898
      ESP Fit Center  323 is at  -8.670487 -0.487062  0.711898
      ESP Fit Center  324 is at  -8.264954 -0.606137  0.711898
      ESP Fit Center  325 is at  -9.799713  0.863673  0.393671
      ESP Fit Center  326 is at  -9.045517 -0.573328  0.393671
      ESP Fit Center  327 is at  -8.672798 -0.768946  0.393671
      ESP Fit Center  328 is at  -8.264094 -0.869682  0.393671
      ESP Fit Center  329 is at  -8.771749 -0.938679  0.030609
      ESP Fit Center  330 is at  -8.367508 -1.050916  0.030609
      ESP Fit Center  331 is at  -9.716056  1.863923 -1.576661
      ESP Fit Center  332 is at  -9.360591  2.021542 -1.939724
      ESP Fit Center  333 is at  -9.599710  1.675120 -1.939724
      ESP Fit Center  334 is at  -7.081208  1.985904 -2.257950
      ESP Fit Center  335 is at  -9.026046  1.985904 -2.257950
      ESP Fit Center  336 is at  -9.302825  1.666484 -2.257950
      ESP Fit Center  337 is at  -7.191427  1.649672 -2.519112
      ESP Fit Center  338 is at  -7.533585  1.908058 -2.519112
      ESP Fit Center  339 is at  -7.945978  2.025393 -2.519112
      ESP Fit Center  340 is at  -8.372909  1.985832 -2.519112
      ESP Fit Center  341 is at  -8.756719  1.794718 -2.519112
      ESP Fit Center  342 is at  -9.045573  1.477860 -2.519112
      ESP Fit Center  343 is at  -7.357658  1.265490 -2.713173
      ESP Fit Center  344 is at  -7.651809  1.559641 -2.713173
      ESP Fit Center  345 is at  -8.053627  1.667308 -2.713173
      ESP Fit Center  346 is at  -8.455445  1.559641 -2.713173
      ESP Fit Center  347 is at  -8.749595  1.265490 -2.713173
      ESP Fit Center  348 is at  -8.857262  0.863673 -2.713173
      ESP Fit Center  349 is at  -8.749595  0.461855 -2.713173
      ESP Fit Center  350 is at  -7.643937  0.863673 -2.832675
      ESP Fit Center  351 is at  -7.848782  1.218475 -2.832675
      ESP Fit Center  352 is at  -8.258472  1.218475 -2.832675
      ESP Fit Center  353 is at  -8.463317  0.863673 -2.832675
      ESP Fit Center  354 is at  -8.258472  0.508871 -2.832675
      ESP Fit Center  355 is at  -7.848782  0.508871 -2.832675
      ESP Fit Center  356 is at  -8.053627  0.863673 -2.873026
      ESP Fit Center  357 is at  -9.826880  0.390200  0.449071
      ESP Fit Center  358 is at  -9.714341 -0.029800  0.449071
      ESP Fit Center  359 is at  -9.406880 -0.337261  0.449071
      ESP Fit Center  360 is at  -9.996886  1.015569  0.182087
      ESP Fit Center  361 is at -10.154592  0.608483  0.182087
      ESP Fit Center  362 is at -10.154592  0.171917  0.182087
      ESP Fit Center  363 is at  -9.996886 -0.235170  0.182087
      ESP Fit Center  364 is at  -9.702773 -0.557796  0.182087
      ESP Fit Center  365 is at  -9.311975 -0.752391  0.182087
      ESP Fit Center  366 is at -10.053414  1.379799 -0.165852
      ESP Fit Center  367 is at -10.297720  1.021467 -0.165852
      ESP Fit Center  368 is at -10.425552  0.607045 -0.165852
      ESP Fit Center  369 is at -10.425552  0.173355 -0.165852
      ESP Fit Center  370 is at -10.297720 -0.241067 -0.165852
      ESP Fit Center  371 is at -10.053414 -0.599399 -0.165852
      ESP Fit Center  372 is at  -9.714341 -0.869800 -0.165852
      ESP Fit Center  373 is at  -9.310631 -1.028245 -0.165852
      ESP Fit Center  374 is at  -8.878153 -1.060655 -0.165852
      ESP Fit Center  375 is at -10.134341  1.537661 -0.571036
      ESP Fit Center  376 is at -10.392227  1.201578 -0.571036
      ESP Fit Center  377 is at -10.554341  0.810200 -0.571036
      ESP Fit Center  378 is at -10.609635  0.390200 -0.571036
      ESP Fit Center  379 is at -10.554341 -0.029800 -0.571036
      ESP Fit Center  380 is at -10.392227 -0.421178 -0.571036
      ESP Fit Center  381 is at -10.134341 -0.757261 -0.571036
      ESP Fit Center  382 is at  -9.798258 -1.015148 -0.571036
      ESP Fit Center  383 is at  -9.406880 -1.177261 -0.571036
      ESP Fit Center  384 is at  -8.986880 -1.232556 -0.571036
      ESP Fit Center  385 is at -10.057752  1.684662 -1.005852
      ESP Fit Center  386 is at -10.346029  1.377679 -1.005852
      ESP Fit Center  387 is at -10.548904  1.008649 -1.005852
      ESP Fit Center  388 is at -10.653633  0.600760 -1.005852
      ESP Fit Center  389 is at -10.653633  0.179640 -1.005852
      ESP Fit Center  390 is at -10.548904 -0.228249 -1.005852
      ESP Fit Center  391 is at -10.346029 -0.597279 -1.005852
      ESP Fit Center  392 is at -10.057752 -0.904262 -1.005852
      ESP Fit Center  393 is at  -9.702189 -1.129910 -1.005852
      ESP Fit Center  394 is at -10.134341  1.537661 -1.440668
      ESP Fit Center  395 is at -10.392227  1.201578 -1.440668
      ESP Fit Center  396 is at -10.554341  0.810200 -1.440668
      ESP Fit Center  397 is at -10.609635  0.390200 -1.440668
      ESP Fit Center  398 is at -10.554341 -0.029800 -1.440668
      ESP Fit Center  399 is at -10.392227 -0.421178 -1.440668
      ESP Fit Center  400 is at -10.134341 -0.757261 -1.440668
      ESP Fit Center  401 is at  -9.798258 -1.015148 -1.440668
      ESP Fit Center  402 is at  -9.714341  1.650200 -1.845852
      ESP Fit Center  403 is at -10.053414  1.379799 -1.845852
[...]
 **** Fit      -0.028763
 **** Fit      -0.030346
 **** Fit      -0.033343
 **** Fit      -0.037820
 **** Fit      -0.043830
 **** Fit      -0.051173
 **** Fit      -0.025570
 **** Fit      -0.025929
 **** Fit      -0.027287
 **** Fit      -0.029607
 **** Fit      -0.032964
 **** Fit      -0.037527
 **** Fit      -0.043513
 **** Fit      -0.051126
 **** Fit      -0.023913
 **** Fit      -0.025475
 **** Fit      -0.027709
 **** Fit      -0.030699
 **** Fit      -0.034622
 **** Fit      -0.039730
 **** Fit      -0.046364
 **** Fit      -0.054957
 **** Fit      -0.022566
 **** Fit      -0.024373
 **** Fit      -0.026585
 **** Fit      -0.029294
 **** Fit      -0.032665
 **** Fit      -0.036923
 **** Fit      -0.042372
 **** Fit      -0.049436
 **** Fit      -0.058746
 **** Fit      -0.025223
 **** Fit      -0.027757
 **** Fit      -0.030694
 **** Fit      -0.034245
 **** Fit      -0.038676
 **** Fit      -0.044346
 **** Fit      -0.051773
 **** Fit      -0.027167
 **** Fit      -0.029881
 **** Fit      -0.032922
 **** Fit      -0.036524
 **** Fit      -0.040970
 **** Fit      -0.046635
 **** Fit      -0.054069
 **** Fit      -0.033926
 **** Fit      -0.037186
 **** Fit      -0.041076
 **** Fit      -0.045915
 **** Fit      -0.052139
 **** Fit      -0.060424
 **** Fit      -0.050682
 **** Fit      -0.057347
 **** Fit      -0.029288
 **** Fit      -0.026042
 **** Fit      -0.023544
 **** Fit      -0.021725
 **** Fit      -0.033966
 **** Fit      -0.029848
 **** Fit      -0.026453
 **** Fit      -0.023815
 **** Fit      -0.021896
 **** Fit      -0.020606
 **** Fit      -0.019797
 **** Fit      -0.035149
 **** Fit      -0.030835
 **** Fit      -0.027281
 **** Fit      -0.024487
 **** Fit      -0.022413
 **** Fit      -0.020998
 **** Fit      -0.020165
 **** Fit      -0.019806
 **** Fit      -0.040150
 **** Fit      -0.036921
 **** Fit      -0.032116
 **** Fit      -0.028230
 **** Fit      -0.025205
 **** Fit      -0.022973
 **** Fit      -0.021463
 **** Fit      -0.020607
 **** Fit      -0.020331
 **** Fit      -0.020549
 **** Fit      -0.042661
 **** Fit      -0.039370
 **** Fit      -0.034032
 **** Fit      -0.029795
 **** Fit      -0.026523
 **** Fit      -0.024109
 **** Fit      -0.022466
 **** Fit      -0.021521
 **** Fit      -0.021216
 **** Fit      -0.021498
 **** Fit      -0.022312
 **** Fit      -0.045959
 **** Fit      -0.042532
 **** Fit      -0.036488
 **** Fit      -0.031806
 **** Fit      -0.028248
 **** Fit      -0.025648
 **** Fit      -0.023890
 **** Fit      -0.022890
 **** Fit      -0.022589
 **** Fit      -0.022947
 **** Fit      -0.023936
 **** Fit      -0.046375
 **** Fit      -0.039293
 **** Fit      -0.034005
 **** Fit      -0.030110
 **** Fit      -0.027357
 **** Fit      -0.025583
 **** Fit      -0.024685
 **** Fit      -0.024595
 **** Fit      -0.025282
 **** Fit      -0.026738
 **** Fit      -0.042469
 **** Fit      -0.036522
 **** Fit      -0.032310
 **** Fit      -0.029472
 **** Fit      -0.027793
 **** Fit      -0.027144
 **** Fit      -0.027458
 **** Fit      -0.028714
 **** Fit      -0.030939
 **** Fit      -0.046082
 **** Fit      -0.039585
 **** Fit      -0.035145
 **** Fit      -0.032300
 **** Fit      -0.030788
 **** Fit      -0.030465
 **** Fit      -0.031263
 **** Fit      -0.033181
 **** Fit      -0.049415
 **** Fit      -0.042398
 **** Fit      -0.037921
 **** Fit      -0.035401
 **** Fit      -0.034531
 **** Fit      -0.035162
 **** Fit      -0.037256
 **** Fit      -0.045597
 **** Fit      -0.041434
 **** Fit      -0.039619
 **** Fit      -0.039830
 **** Fit      -0.048832
 **** Fit      -0.045741
 **** Fit      -0.061237
 **** Fit      -0.059056
 **** Fit      -0.055874
 **** Fit      -0.068673
 **** Fit      -0.066130
 **** Fit      -0.063809
 **** Fit      -0.061568
 **** Fit      -0.059825
 **** Fit      -0.057253
 **** Fit      -0.053724
 **** Fit      -0.065357
 **** Fit      -0.063521
 **** Fit      -0.061792
 **** Fit      -0.060523
 **** Fit      -0.058429
 **** Fit      -0.055377
 **** Fit      -0.050958
 **** Fit      -0.064776
 **** Fit      -0.063331
 **** Fit      -0.062035
 **** Fit      -0.061064
 **** Fit      -0.059529
 **** Fit      -0.057121
 **** Fit      -0.053451
 **** Fit      -0.048016
 **** Fit      -0.062882
 **** Fit      -0.062069
 **** Fit      -0.061381
 **** Fit      -0.060400
 **** Fit      -0.058616
 **** Fit      -0.055683
 **** Fit      -0.051161
 **** Fit      -0.062189
 **** Fit      -0.061873
 **** Fit      -0.061428
 **** Fit      -0.061021
 **** Fit      -0.059903
 **** Fit      -0.057792
 **** Fit      -0.054354
 **** Fit      -0.049127
 **** Fit      -0.061183
 **** Fit      -0.061389
 **** Fit      -0.061179
 **** Fit      -0.061333
 **** Fit      -0.060830
 **** Fit      -0.059443
 **** Fit      -0.056920
 **** Fit      -0.052947
 **** Fit      -0.060597
 **** Fit      -0.060631
 **** Fit      -0.061354
 **** Fit      -0.061407
 **** Fit      -0.060597
 **** Fit      -0.058726
 **** Fit      -0.055567
 **** Fit      -0.050852
 **** Fit      -0.059444
 **** Fit      -0.059811
 **** Fit      -0.061115
 **** Fit      -0.061733
 **** Fit      -0.061520
 **** Fit      -0.060336
 **** Fit      -0.058051
 **** Fit      -0.054544
 **** Fit      -0.057978
 **** Fit      -0.058782
 **** Fit      -0.060648
 **** Fit      -0.061803
 **** Fit      -0.062160
 **** Fit      -0.061643
 **** Fit      -0.060197
 **** Fit      -0.057810
 **** Fit      -0.054552
 **** Fit      -0.057659
 **** Fit      -0.060113
 **** Fit      -0.061757
 **** Fit      -0.062566
 **** Fit      -0.062517
 **** Fit      -0.061620
 **** Fit      -0.059947
 **** Fit      -0.057683
 **** Fit      -0.055193
 **** Fit      -0.059626
 **** Fit      -0.061702
 **** Fit      -0.062884
 **** Fit      -0.063206
 **** Fit      -0.062741
 **** Fit      -0.061646
 **** Fit      -0.060201
 **** Fit      -0.058846
 **** Fit      -0.058157
 **** Fit      -0.059265
 **** Fit      -0.061661
 **** Fit      -0.063140
 **** Fit      -0.063785
 **** Fit      -0.063726
 **** Fit      -0.063179
 **** Fit      -0.062466
 **** Fit      -0.061997
 **** Fit      -0.062175
 **** Fit      -0.063228
 **** Fit      -0.065034
 **** Fit      -0.059224
 **** Fit      -0.061811
 **** Fit      -0.063466
 **** Fit      -0.064316
 **** Fit      -0.064548
 **** Fit      -0.064437
 **** Fit      -0.064321
 **** Fit      -0.064524
 **** Fit      -0.065221
 **** Fit      -0.066337
 **** Fit      -0.067576
 **** Fit      -0.068622
 **** Fit      -0.069367
 **** Fit      -0.069956
 **** Fit      -0.070620
 **** Fit      -0.071484
 **** Fit      -0.059494
 **** Fit      -0.062091
 **** Fit      -0.063812
 **** Fit      -0.064800
 **** Fit      -0.065279
 **** Fit      -0.065535
 **** Fit      -0.065847
 **** Fit      -0.066382
 **** Fit      -0.067119
 **** Fit      -0.067903
 **** Fit      -0.068591
 **** Fit      -0.069175
 **** Fit      -0.069759
 **** Fit      -0.070447
 **** Fit      -0.060308
 **** Fit      -0.062837
 **** Fit      -0.064494
 **** Fit      -0.065479
 **** Fit      -0.066095
 **** Fit      -0.066626
 **** Fit      -0.067211
 **** Fit      -0.067817
 **** Fit      -0.068370
 **** Fit      -0.068872
 **** Fit      -0.069386
 **** Fit      -0.061264
 **** Fit      -0.063547
 **** Fit      -0.065063
 **** Fit      -0.066028
 **** Fit      -0.066717
 **** Fit      -0.067284
 **** Fit      -0.067748
 **** Fit      -0.068104
 **** Fit      -0.062548
 **** Fit      -0.064538
 **** Fit      -0.065786
 **** Fit      -0.066530
 **** Fit      -0.066905
 **** Fit      -0.063963
 **** Fit      -0.065296
 **** Fit      -0.070172
 **** Fit      -0.071464
 **** Fit      -0.068387
 **** Fit      -0.069190
 **** Fit      -0.066669
 **** Fit      -0.064307
 **** Fit      -0.069590
 **** Fit      -0.066537
 **** Fit      -0.064785
 **** Fit      -0.062826
 **** Fit      -0.070637
 **** Fit      -0.066786
 **** Fit      -0.064192
 **** Fit      -0.062879
 **** Fit      -0.061132
 **** Fit      -0.067172
 **** Fit      -0.063875
 **** Fit      -0.061766
 **** Fit      -0.060851
 **** Fit      -0.059241
 **** Fit      -0.060943
 **** Fit      -0.068082
 **** Fit      -0.064047
 **** Fit      -0.061137
 **** Fit      -0.059359
 **** Fit      -0.058721
 **** Fit      -0.057166
 **** Fit      -0.058990
 **** Fit      -0.064443
 **** Fit      -0.060875
 **** Fit      -0.058353
 **** Fit      -0.056881
 **** Fit      -0.056477
 **** Fit      -0.054927
 **** Fit      -0.056841
 **** Fit      -0.065528
 **** Fit      -0.061242
 **** Fit      -0.057949
 **** Fit      -0.055653
 **** Fit      -0.054367
 **** Fit      -0.054115
 **** Fit      -0.057851
 **** Fit      -0.063159
 **** Fit      -0.072289
 **** Fit      -0.073727
 **** Fit      -0.070634
 **** Fit      -0.071889
 **** Fit      -0.058803
 **** Fit      -0.068468
 **** Fit      -0.068779
 **** Fit      -0.069863
 **** Fit      -0.071706
 **** Fit      -0.059920
 **** Fit      -0.062861
 **** Fit      -0.065694
 **** Fit      -0.066087
 **** Fit      -0.066537
 **** Fit      -0.067498
 **** Fit      -0.069100
 **** Fit      -0.071101
 **** Fit      -0.057635
 **** Fit      -0.060391
 **** Fit      -0.062312
 **** Fit      -0.063513
 **** Fit      -0.064485
 **** Fit      -0.065690
 **** Fit      -0.067184
 **** Fit      -0.068514
 **** Fit      -0.068912
 **** Fit      -0.067718
 **** Fit      -0.064806
 **** Fit      -0.060686
 **** Fit      -0.056935
 **** Fit      -0.059545
 **** Fit      -0.061458
 **** Fit      -0.062944
 **** Fit      -0.064253
 **** Fit      -0.064827
 **** Fit      -0.063685
 **** Fit      -0.060603
 **** Fit      -0.057211
 **** Fit      -0.059781
 **** Fit      -0.061332
 **** Fit      -0.060595
 **** Fit      -0.057393
 **** Fit      -0.058436
 **** Fit      -0.053882
 **** Fit      -0.051601
 **** Fit      -0.053044
 **** Fit      -0.055914
 **** Fit      -0.056651
 **** Fit      -0.053827
 **** Fit      -0.052071
 **** Fit      -0.051319
 **** Fit      -0.049399
 **** Fit      -0.050611
 **** Fit      -0.052970
 **** Fit      -0.056798
 **** Fit      -0.061475
 **** Fit      -0.056932
 **** Fit      -0.053600
 **** Fit      -0.051253
 **** Fit      -0.049782
 **** Fit      -0.049154
 **** Fit      -0.047625
 **** Fit      -0.048663
 **** Fit      -0.050666
 **** Fit      -0.053850
 **** Fit      -0.063226
 **** Fit      -0.058117
 **** Fit      -0.054252
 **** Fit      -0.051359
 **** Fit      -0.049293
 **** Fit      -0.047987
 **** Fit      -0.047423
 **** Fit      -0.046296
 **** Fit      -0.047240
 **** Fit      -0.049080
 **** Fit      -0.051980
 **** Fit      -0.056186
 **** Fit      -0.061472
 **** Fit      -0.056629
 **** Fit      -0.052903
 **** Fit      -0.050080
 **** Fit      -0.048043
 **** Fit      -0.046737
 **** Fit      -0.046148
 **** Fit      -0.045427
 **** Fit      -0.046303
 **** Fit      -0.048046
 **** Fit      -0.050776
 **** Fit      -0.054657
 **** Fit      -0.060949
 **** Fit      -0.056132
 **** Fit      -0.052363
 **** Fit      -0.049473
 **** Fit      -0.047364
 **** Fit      -0.045990
 **** Fit      -0.045338
 **** Fit      -0.045023
 **** Fit      -0.045817
 **** Fit      -0.047431
 **** Fit      -0.049935
 **** Fit      -0.053404
 **** Fit      -0.057873
 **** Fit      -0.060463
 **** Fit      -0.055856
 **** Fit      -0.052152
 **** Fit      -0.049260
 **** Fit      -0.047119
 **** Fit      -0.045699
 **** Fit      -0.044995
 **** Fit      -0.045090
 **** Fit      -0.045867
 **** Fit      -0.047516
 **** Fit      -0.050057
 **** Fit      -0.053460
 **** Fit      -0.057573
 **** Fit      -0.062261
 **** Fit      -0.057465
 **** Fit      -0.053415
 **** Fit      -0.050160
 **** Fit      -0.047699
 **** Fit      -0.046028
 **** Fit      -0.045152
 **** Fit      -0.045629
 **** Fit      -0.046379
 **** Fit      -0.048042
 **** Fit      -0.050554
 **** Fit      -0.053734
 **** Fit      -0.057202
 **** Fit      -0.059143
 **** Fit      -0.055077
 **** Fit      -0.051573
 **** Fit      -0.048809
 **** Fit      -0.046869
 **** Fit      -0.045799
 **** Fit      -0.046645
 **** Fit      -0.047416
 **** Fit      -0.049213
 **** Fit      -0.051797
 **** Fit      -0.054709
 **** Fit      -0.057605
 **** Fit      -0.054017
 **** Fit      -0.050820
 **** Fit      -0.048405
 **** Fit      -0.046981
 **** Fit      -0.048137
 **** Fit      -0.049066
 **** Fit      -0.051258
 **** Fit      -0.053931
 **** Fit      -0.057145
 **** Fit      -0.054100
 **** Fit      -0.050977
 **** Fit      -0.048809
 **** Fit      -0.050106
 **** Fit      -0.051513
 **** Fit      -0.054070
 **** Fit      -0.055481
 **** Fit      -0.054406
 **** Fit      -0.051544
 **** Fit      -0.052554
 **** Fit      -0.079453
 **** Fit      -0.073788
 **** Fit      -0.086501
 **** Fit      -0.081179
 **** Fit      -0.077025
 **** Fit      -0.086137
 **** Fit      -0.081549
 **** Fit      -0.077760
 **** Fit      -0.074555
 **** Fit      -0.085305
 **** Fit      -0.081584
 **** Fit      -0.078236
 **** Fit      -0.075126
 **** Fit      -0.072354
 **** Fit      -0.082473
 **** Fit      -0.080365
 **** Fit      -0.077929
 **** Fit      -0.075262
 **** Fit      -0.072558
 **** Fit      -0.078288
 **** Fit      -0.078274
 **** Fit      -0.077092
 **** Fit      -0.075119
 **** Fit      -0.072683
 **** Fit      -0.070095
 **** Fit      -0.073283
 **** Fit      -0.075356
 **** Fit      -0.075570
 **** Fit      -0.074493
 **** Fit      -0.072558
 **** Fit      -0.070117
 **** Fit      -0.067837
 **** Fit      -0.071919
 **** Fit      -0.073640
 **** Fit      -0.073629
 **** Fit      -0.072380
 **** Fit      -0.070278
 **** Fit      -0.067651
 **** Fit      -0.066845
 **** Fit      -0.070747
 **** Fit      -0.072353
 **** Fit      -0.072222
 **** Fit      -0.070799
 **** Fit      -0.068443
 **** Fit      -0.067060
 **** Fit      -0.070320
 **** Fit      -0.071505
 **** Fit      -0.071059
 **** Fit      -0.069344
 **** Fit      -0.066655
 **** Fit      -0.067928
 **** Fit      -0.070307
 **** Fit      -0.070914
 **** Fit      -0.070060
 **** Fit      -0.068006
 **** Fit      -0.064961
 **** Fit      -0.068014
 **** Fit      -0.070132
 **** Fit      -0.070613
 **** Fit      -0.069656
 **** Fit      -0.067452
 **** Fit      -0.064149
 **** Fit      -0.068332
 **** Fit      -0.070200
 **** Fit      -0.070671
 **** Fit      -0.069759
 **** Fit      -0.067557
 **** Fit      -0.064160
 **** Fit      -0.068270
 **** Fit      -0.069716
 **** Fit      -0.070850
 **** Fit      -0.071076
 **** Fit      -0.070145
 **** Fit      -0.068004
 **** Fit      -0.064673
 **** Fit      -0.074858
 **** Fit      -0.076918
 **** Fit      -0.079332
 **** Fit      -0.081865
 **** Fit      -0.084005
 **** Fit      -0.084968
 **** Fit      -0.084050
 **** Fit      -0.081256
 **** Fit      -0.077575
 **** Fit      -0.074391
 **** Fit      -0.072567
 **** Fit      -0.072035
 **** Fit      -0.072092
 **** Fit      -0.071946
 **** Fit      -0.071043
 **** Fit      -0.069103
 **** Fit      -0.066029
 **** Fit      -0.073433
 **** Fit      -0.075381
 **** Fit      -0.077585
 **** Fit      -0.079752
 **** Fit      -0.081424
 **** Fit      -0.082047
 **** Fit      -0.081289
 **** Fit      -0.079402
 **** Fit      -0.077167
 **** Fit      -0.075347
 **** Fit      -0.074169
 **** Fit      -0.073302
 **** Fit      -0.072195
 **** Fit      -0.070392
 **** Fit      -0.067642
 **** Fit      -0.063875
 **** Fit      -0.073376
 **** Fit      -0.075594
 **** Fit      -0.077700
 **** Fit      -0.079211
 **** Fit      -0.079645
 **** Fit      -0.078891
 **** Fit      -0.077400
 **** Fit      -0.075791
 **** Fit      -0.074284
 **** Fit      -0.072589
 **** Fit      -0.070255
 **** Fit      -0.066999
 **** Fit      -0.072458
 **** Fit      -0.074700
 **** Fit      -0.076500
 **** Fit      -0.077384
 **** Fit      -0.077132
 **** Fit      -0.076005
 **** Fit      -0.074391
 **** Fit      -0.072329
 **** Fit      -0.069574
 **** Fit      -0.066025
 **** Fit      -0.072365
 **** Fit      -0.074350
 **** Fit      -0.075059
 **** Fit      -0.074299
 **** Fit      -0.072359
 **** Fit      -0.069418
 **** Fit      -0.071997
 **** Fit      -0.072004
 **** Fit      -0.069336
 **** Fit      -0.069347
 **** Fit      -0.080418
 **** Fit      -0.075237
 **** Fit      -0.084215
 **** Fit      -0.078968
 **** Fit      -0.073851
 **** Fit      -0.087977
 **** Fit      -0.081829
 **** Fit      -0.077284
 **** Fit      -0.072830
 **** Fit      -0.085636
 **** Fit      -0.080325
 **** Fit      -0.076157
 **** Fit      -0.080527
 **** Fit      -0.078971
 **** Fit      -0.081806
 **** Fit      -0.075887
 **** Fit      -0.077600
 **** Fit      -0.080106
 **** Fit      -0.083570
 **** Fit      -0.074732
 **** Fit      -0.076246
 **** Fit      -0.078458
 **** Fit      -0.081390
 **** Fit      -0.084620
 **** Fit      -0.087063
 **** Fit      -0.078766
 -----------------------------------------------------------------
 Leave Link  602 at Tue Dec 13 22:09:40 2022, MaxMem=   134217728 cpu:         4.0

 Test job not archived.
 1\1\NSC-N117\SP\RHF\6-31G(d)\C21H26N7O14P2(1-)\X_GABOA\13-Dec-2022\0\\
 #HF/6-31G* scrf=smd SCF=tight Test Pop=MK iop(6/33=2) iop(6/42=6) # io
 p(6/50=1)\\calc RESP charges\\-1,1\C,0,-6.81712,2.736289,-0.017356\H,0
 ,-6.727573,3.738852,0.347829\C,0,-8.02988,2.154853,-0.278853\H,0,-8.93
 0434,2.710634,-0.111745\C,0,-8.053627,0.863673,-0.773026\H,0,-8.98688,
 0.3902,-1.005852\C,0,-6.861995,0.16977,-0.96697\C,0,-6.927758,-1.21875
 1,-1.536142\O,0,-7.899615,-1.536219,-2.197861\N,0,-5.920102,-2.047145,
 -1.295482\H,0,-5.163001,-1.864578,-0.666567\H,0,-5.980116,-2.966338,-1
 .68063\C,0,-5.679863,0.806382,-0.676262\H,0,-4.719153,0.357325,-0.8086
 17\N,0,-5.676286,2.065265,-0.221581\C,0,-4.394865,2.727392,0.138988\H,
 0,-4.588199,3.787529,0.090165\C,0,-3.873578,2.318346,1.518385\H,0,-4.0
 7713,1.268142,1.676907\O,0,-4.395297,3.093165,2.556772\H,0,-5.255085,2
 .759845,2.79004\C,0,-2.364095,2.504922,1.354023\H,0,-1.818154,1.819597
 ,1.982334\O,0,-1.922125,3.789015,1.718597\H,0,-2.33508,4.454366,1.1779
 46\C,0,-2.142804,2.206452,-0.137734\H,0,-1.480614,2.948528,-0.561094\O
 ,0,-3.424523,2.344518,-0.768794\C,0,-1.579755,0.841288,-0.454805\H,0,-
 1.528635,0.709925,-1.526054\H,0,-0.583354,0.762845,-0.039102\O,0,-2.42
 5321,-0.144064,0.110126\P,0,-2.176832,-1.71318,-0.093727\O,0,-1.662983
 ,-1.99085,-1.454977\O,0,-3.402964,-2.390143,0.392783\O,0,-0.981376,-1.
 925471,0.981559\P,0,0.023767,-3.184495,1.173291\O,0,0.697329,-2.961765
 ,2.474214\O,0,-0.694434,-4.449684,0.900447\O,0,1.060443,-2.983048,-0.0
 33472\C,0,1.830903,-1.801475,-0.171608\H,0,1.949997,-1.303713,0.78096\
 H,0,1.328061,-1.13309,-0.85636\C,0,3.18197,-2.190415,-0.743583\H,0,3.0
 37268,-2.783914,-1.636005\O,0,3.862951,-0.986725,-1.094287\C,0,4.09262
 7,-2.922902,0.244506\H,0,3.534178,-3.423847,1.018902\O,0,4.889327,-3.9
 1359,-0.366148\H,0,5.236056,-3.604091,-1.196952\C,0,4.951652,-1.786209
 ,0.799438\H,0,4.410041,-1.272709,1.580691\O,0,6.177821,-2.189684,1.336
 788\H,0,6.521479,-2.893281,0.79446\C,0,5.090937,-0.87521,-0.420095\H,0
 ,5.900872,-1.214578,-1.048039\N,0,5.350195,0.512207,-0.131612\C,0,4.56
 4572,1.360129,0.607082\H,0,3.678056,1.00824,1.091482\N,0,4.99287,2.568
 696,0.644004\C,0,6.143396,2.544417,-0.127975\C,0,7.070134,3.528574,-0.
 486017\N,0,6.949849,4.814428,-0.110584\H,0,6.350647,5.02826,0.656939\H
 ,0,7.753673,5.39594,-0.2136\N,0,8.09284,3.180262,-1.266513\C,0,8.18244
 4,1.91893,-1.66928\H,0,9.025445,1.697054,-2.296599\N,0,7.381922,0.9125
 52,-1.401189\C,0,6.368491,1.280297,-0.619411\\Version=ES64L-G09RevE.01
 \State=1-A\HF=-2921.5091887\RMSD=7.644e-09\Dipole=-5.497062,14.4229341
 ,-1.6825653\Quadrupole=66.748706,-42.0553453,-24.6933606,-77.7880482,-
 21.0438177,18.927617\PG=C01 [X(C21H26N7O14P2)]\\@


 A great many people think they are thinking when they
 are merely rearranging their prejudices.
                               -- William James
 Job cpu time:       0 days  0 hours 11 minutes 50.3 seconds.
 File lengths (MBytes):  RWF=    689 Int=      0 D2E=      0 Chk=     32 Scr=      1
 Normal termination of Gaussian 09 at Tue Dec 13 22:09:41 2022.
