 Entering Gaussian System, Link 0=/software/sse/easybuild/prefix/software/Gaussian/09.E.01-avx-nsc1-bdist/g09/g09.orig
 Input=sub_opt.wrap
 Output=sub_opt.log
 Initial command:
 /software/sse/easybuild/prefix/software/Gaussian/09.E.01-avx-nsc1-bdist/g09/l1.exe "/scratch/local/Gau-138969.inp" -scrdir="/scratch/local/"
 Entering Link 1 = /software/sse/easybuild/prefix/software/Gaussian/09.E.01-avx-nsc1-bdist/g09/l1.exe PID=    138970.
  
 Copyright (c) 1988,1990,1992,1993,1995,1998,2003,2009,2015,
            Gaussian, Inc.  All Rights Reserved.
  
 This is part of the Gaussian(R) 09 program.  It is based on
 the Gaussian(R) 03 system (copyright 2003, Gaussian, Inc.),
 the Gaussian(R) 98 system (copyright 1998, Gaussian, Inc.),
 the Gaussian(R) 94 system (copyright 1995, Gaussian, Inc.),
 the Gaussian 92(TM) system (copyright 1992, Gaussian, Inc.),
 the Gaussian 90(TM) system (copyright 1990, Gaussian, Inc.),
 the Gaussian 88(TM) system (copyright 1988, Gaussian, Inc.),
 the Gaussian 86(TM) system (copyright 1986, Carnegie Mellon
 University), and the Gaussian 82(TM) system (copyright 1983,
 Carnegie Mellon University). Gaussian is a federally registered
 trademark of Gaussian, Inc.
  
 This software contains proprietary and confidential information,
 including trade secrets, belonging to Gaussian, Inc.
  
 This software is provided under written license and may be
 used, copied, transmitted, or stored only in accord with that
 written license.
  
 The following legend is applicable only to US Government
 contracts under FAR:
  
                    RESTRICTED RIGHTS LEGEND
  
 Use, reproduction and disclosure by the US Government is
 subject to restrictions as set forth in subparagraphs (a)
 and (c) of the Commercial Computer Software - Restricted
 Rights clause in FAR 52.227-19.
  
 Gaussian, Inc.
 340 Quinnipiac St., Bldg. 40, Wallingford CT 06492
  
  
 ---------------------------------------------------------------
 Warning -- This program may not be used in any manner that
 competes with the business of Gaussian, Inc. or will provide
 assistance to any competitor of Gaussian, Inc.  The licensee
 of this program is prohibited from giving any competitor of
 Gaussian, Inc. access to this program.  By using this program,
 the user acknowledges that Gaussian, Inc. is engaged in the
 business of creating and licensing software in the field of
 computational chemistry and represents and warrants to the
 licensee that it is not a competitor of Gaussian, Inc. and that
 it will not use this program in any manner prohibited above.
 ---------------------------------------------------------------
  

 Cite this work as:
 Gaussian 09, Revision E.01,
 M. J. Frisch, G. W. Trucks, H. B. Schlegel, G. E. Scuseria, 
 M. A. Robb, J. R. Cheeseman, G. Scalmani, V. Barone, B. Mennucci, 
 G. A. Petersson, H. Nakatsuji, M. Caricato, X. Li, H. P. Hratchian, 
 A. F. Izmaylov, J. Bloino, G. Zheng, J. L. Sonnenberg, M. Hada, 
 M. Ehara, K. Toyota, R. Fukuda, J. Hasegawa, M. Ishida, T. Nakajima, 
 Y. Honda, O. Kitao, H. Nakai, T. Vreven, J. A. Montgomery, Jr., 
 J. E. Peralta, F. Ogliaro, M. Bearpark, J. J. Heyd, E. Brothers, 
 K. N. Kudin, V. N. Staroverov, T. Keith, R. Kobayashi, J. Normand, 
 K. Raghavachari, A. Rendell, J. C. Burant, S. S. Iyengar, J. Tomasi, 
 M. Cossi, N. Rega, J. M. Millam, M. Klene, J. E. Knox, J. B. Cross, 
 V. Bakken, C. Adamo, J. Jaramillo, R. Gomperts, R. E. Stratmann, 
 O. Yazyev, A. J. Austin, R. Cammi, C. Pomelli, J. W. Ochterski, 
 R. L. Martin, K. Morokuma, V. G. Zakrzewski, G. A. Voth, 
 P. Salvador, J. J. Dannenberg, S. Dapprich, A. D. Daniels, 
 O. Farkas, J. B. Foresman, J. V. Ortiz, J. Cioslowski, 
 and D. J. Fox, Gaussian, Inc., Wallingford CT, 2013.
 
 ******************************************
 Gaussian 09:  ES64L-G09RevE.01 30-Nov-2015
                28-Feb-2023 
 ******************************************
 %nproc=16
 Will use up to   16 processors via shared memory.
 %chk=sub_opt
 ----------------------------
 #M062X/6-311G** scrf=smd opt
 ----------------------------
 1/14=-1,18=20,19=15,26=3,38=1/1,3;
 2/9=110,12=2,17=6,18=5,40=1/2;
 3/5=4,6=6,7=101,11=2,16=1,25=1,30=1,70=32201,71=1,72=1,74=-55/1,2,3;
 4//1;
 5/5=2,38=5/2;
 6/7=2,8=2,9=2,10=2,28=1/1;
 7//1,2,3,16;
 1/14=-1,18=20,19=15,26=3/3(2);
 2/9=110/2;
 99//99;
 2/9=110/2;
 3/5=4,6=6,7=101,11=2,16=1,25=1,30=1,70=32205,71=1,74=-55/1,2,3;
 4/5=5,16=3,69=1/1;
 5/5=2,38=5/2;
 7//1,2,3,16;
 1/14=-1,18=20,19=15,26=3/3(-5);
 2/9=110/2;
 6/7=2,8=2,9=2,10=2,19=2,28=1/1;
 99/9=1/99;
 ---------------
 SUB in PS state
 ---------------
 Symbolic Z-matrix:
 Charge = -2 Multiplicity = 1
 P                     22.394    42.16     16.893 
 O                     21.667    41.018    16.124 
 O                     23.015    41.628    18.241 
 O                     21.573    43.407    17.067 
 O                     23.753    42.57     15.929 
 C                     23.311    42.835    14.513 
 H                     22.789    43.65     14.447 
 H                     22.799    42.094    14.152 
 C                     24.681    42.976    13.815 
 O                     25.335    43.954    14.051 
 C                     25.185    41.871    13.011 
 O                     26.031    42.093    11.946 
 H                     25.656    42.569    11.394 
 H                     25.641    41.264    13.615 
 H                     24.413    41.395    12.666 
 

 GradGradGradGradGradGradGradGradGradGradGradGradGradGradGradGradGradGrad
 Berny optimization.
 Initialization pass.
                           ----------------------------
                           !    Initial Parameters    !
                           ! (Angstroms and Degrees)  !
 --------------------------                            --------------------------
 ! Name  Definition              Value          Derivative Info.                !
 --------------------------------------------------------------------------------
 ! R1    R(1,2)                  1.5569         estimate D2E/DX2                !
 ! R2    R(1,3)                  1.5766         estimate D2E/DX2                !
 ! R3    R(1,4)                  1.5031         estimate D2E/DX2                !
 ! R4    R(1,5)                  1.7159         estimate D2E/DX2                !
 ! R5    R(5,6)                  1.5069         estimate D2E/DX2                !
 ! R6    R(6,7)                  0.9701         estimate D2E/DX2                !
 ! R7    R(6,8)                  0.9703         estimate D2E/DX2                !
 ! R8    R(6,9)                  1.544          estimate D2E/DX2                !
 ! R9    R(9,10)                 1.2            estimate D2E/DX2                !
 ! R10   R(9,11)                 1.4565         estimate D2E/DX2                !
 ! R11   R(11,12)                1.3781         estimate D2E/DX2                !
 ! R12   R(11,14)                0.9702         estimate D2E/DX2                !
 ! R13   R(11,15)                0.9704         estimate D2E/DX2                !
 ! R14   R(12,13)                0.8197         estimate D2E/DX2                !
 ! A1    A(2,1,3)              111.0211         estimate D2E/DX2                !
 ! A2    A(2,1,4)              114.2455         estimate D2E/DX2                !
 ! A3    A(2,1,5)              105.5214         estimate D2E/DX2                !
 ! A4    A(3,1,4)              113.3345         estimate D2E/DX2                !
 ! A5    A(3,1,5)              104.4189         estimate D2E/DX2                !
 ! A6    A(4,1,5)              107.4217         estimate D2E/DX2                !
 ! A7    A(1,5,6)              109.7329         estimate D2E/DX2                !
 ! A8    A(5,6,7)              111.6858         estimate D2E/DX2                !
 ! A9    A(5,6,8)              111.7205         estimate D2E/DX2                !
 ! A10   A(5,6,9)              100.4048         estimate D2E/DX2                !
 ! A11   A(7,6,8)              109.4103         estimate D2E/DX2                !
 ! A12   A(7,6,9)              111.714          estimate D2E/DX2                !
 ! A13   A(8,6,9)              111.6994         estimate D2E/DX2                !
 ! A14   A(6,9,10)             117.9767         estimate D2E/DX2                !
 ! A15   A(6,9,11)             119.1627         estimate D2E/DX2                !
 ! A16   A(10,9,11)            122.5679         estimate D2E/DX2                !
 ! A17   A(9,11,12)            121.1171         estimate D2E/DX2                !
 ! A18   A(9,11,14)            107.0766         estimate D2E/DX2                !
 ! A19   A(9,11,15)            107.0446         estimate D2E/DX2                !
 ! A20   A(12,11,14)           107.06           estimate D2E/DX2                !
 ! A21   A(12,11,15)           107.017          estimate D2E/DX2                !
 ! A22   A(14,11,15)           106.7611         estimate D2E/DX2                !
 ! A23   A(11,12,13)           109.458          estimate D2E/DX2                !
 ! D1    D(2,1,5,6)             51.6719         estimate D2E/DX2                !
 ! D2    D(3,1,5,6)            168.7884         estimate D2E/DX2                !
 ! D3    D(4,1,5,6)            -70.5927         estimate D2E/DX2                !
 ! D4    D(1,5,6,7)             69.1035         estimate D2E/DX2                !
 ! D5    D(1,5,6,8)            -53.8112         estimate D2E/DX2                !
 ! D6    D(1,5,6,9)           -172.3527         estimate D2E/DX2                !
 ! D7    D(5,6,9,10)           -70.7712         estimate D2E/DX2                !
 ! D8    D(5,6,9,11)           103.177          estimate D2E/DX2                !
 ! D9    D(7,6,9,10)            47.7519         estimate D2E/DX2                !
 ! D10   D(7,6,9,11)          -138.2999         estimate D2E/DX2                !
 ! D11   D(8,6,9,10)           170.6719         estimate D2E/DX2                !
 ! D12   D(8,6,9,11)           -15.38           estimate D2E/DX2                !
 ! D13   D(6,9,11,12)          151.4893         estimate D2E/DX2                !
 ! D14   D(6,9,11,14)          -85.5598         estimate D2E/DX2                !
 ! D15   D(6,9,11,15)           28.6275         estimate D2E/DX2                !
 ! D16   D(10,9,11,12)         -34.8538         estimate D2E/DX2                !
 ! D17   D(10,9,11,14)          88.0972         estimate D2E/DX2                !
 ! D18   D(10,9,11,15)        -157.7155         estimate D2E/DX2                !
 ! D19   D(9,11,12,13)         -60.3541         estimate D2E/DX2                !
 ! D20   D(14,11,12,13)        176.687          estimate D2E/DX2                !
 ! D21   D(15,11,12,13)         62.5207         estimate D2E/DX2                !
 --------------------------------------------------------------------------------
 Trust Radius=3.00D-01 FncErr=1.00D-07 GrdErr=1.00D-06
 Number of steps in this run=     68 maximum allowed number of steps=    100.
 GradGradGradGradGradGradGradGradGradGradGradGradGradGradGradGradGradGrad

                          Input orientation:                          
 ---------------------------------------------------------------------
 Center     Atomic      Atomic             Coordinates (Angstroms)
 Number     Number       Type             X           Y           Z
 ---------------------------------------------------------------------
      1         15           0       22.394000   42.160000   16.893000
      2          8           0       21.667000   41.018000   16.124000
      3          8           0       23.015000   41.628000   18.241000
      4          8           0       21.573000   43.407000   17.067000
      5          8           0       23.753000   42.570000   15.929000
      6          6           0       23.311000   42.835000   14.513000
      7          1           0       22.789000   43.650000   14.447000
      8          1           0       22.799000   42.094000   14.152000
      9          6           0       24.681000   42.976000   13.815000
     10          8           0       25.335000   43.954000   14.051000
     11          6           0       25.185000   41.871000   13.011000
     12          8           0       26.031000   42.093000   11.946000
     13          1           0       25.656000   42.569000   11.394000
     14          1           0       25.641000   41.264000   13.615000
     15          1           0       24.413000   41.395000   12.666000
 ---------------------------------------------------------------------
                    Distance matrix (angstroms):
                    1          2          3          4          5
     1  P    0.000000
     2  O    1.556937   0.000000
     3  O    1.576632   2.582807   0.000000
     4  O    1.503105   2.570098   2.573418   0.000000
     5  O    1.715890   2.607321   2.603335   2.597694   0.000000
     6  C    2.638354   2.932498   3.929688   3.141774   1.506866
     7  H    2.891201   3.316419   4.305113   2.898638   2.071719
     8  H    2.771545   2.515548   4.121132   3.424072   2.072298
     9  C    3.920499   4.271936   4.917534   4.518952   2.344145
    10  O    4.465969   5.135333   5.324357   4.852639   2.818699
    11  C    4.789898   4.774380   5.667526   5.644198   3.324748
    12  O    6.140445   6.136433   6.995678   6.915562   4.613144
    13  H    6.406787   6.378920   7.398768   7.039607   4.918093
    14  H    4.700118   4.706195   5.331815   5.749555   3.259567
    15  H    4.746484   4.431750   5.752332   5.610931   3.530353
                    6          7          8          9         10
     6  C    0.000000
     7  H    0.970085   0.000000
     8  H    0.970333   1.583749   0.000000
     9  C    1.544016   2.105556   2.105568   0.000000
    10  O    2.358428   2.594484   3.146601   1.199957   0.000000
    11  C    2.587890   3.311760   2.654168   1.456522   2.333021
    12  O    3.812932   4.380618   3.913088   2.468876   2.894609
    13  H    3.911258   4.325397   3.999330   2.641499   3.013456
    14  H    2.950143   3.810397   3.009025   1.972953   2.742231
    15  H    2.588322   3.300661   2.302562   1.972710   3.052342
                   11         12         13         14         15
    11  C    0.000000
    12  O    1.378124   0.000000
    13  H    1.823111   0.819698   0.000000
    14  H    0.970155   1.903918   2.576061   0.000000
    15  H    0.970353   1.903557   2.131035   1.557481   0.000000
 Stoichiometry    C3H5O6P(2-)
 Framework group  C1[X(C3H5O6P)]
 Deg. of freedom    39
 Full point group                 C1      NOp   1
 Largest Abelian subgroup         C1      NOp   1
 Largest concise Abelian subgroup C1      NOp   1
                         Standard orientation:                         
 ---------------------------------------------------------------------
 Center     Atomic      Atomic             Coordinates (Angstroms)
 Number     Number       Type             X           Y           Z
 ---------------------------------------------------------------------
      1         15           0       -2.006022   -0.087698    0.036223
      2          8           0       -1.907809   -1.483536   -0.646451
      3          8           0       -2.756878   -0.186030    1.419088
      4          8           0       -2.539235    0.999061   -0.854824
      5          8           0       -0.395844    0.333762    0.453330
      6          6           0        0.495714    0.193130   -0.753315
      7          1           0        0.299831    0.865975   -1.424116
      8          1           0        0.425004   -0.689050   -1.151190
      9          6           0        1.879134    0.418036   -0.105587
     10          8           0        2.152135    1.524908    0.268847
     11          6           0        2.739345   -0.729747    0.147571
     12          8           0        4.111568   -0.602792    0.158034
     13          1           0        4.366765   -0.336755   -0.574089
     14          1           0        2.480755   -1.095234    1.008240
     15          1           0        2.521321   -1.400966   -0.518399
 ---------------------------------------------------------------------
 Rotational constants (GHZ):      2.8435460      0.5110683      0.4900160
 Standard basis: 6-311G(d,p) (5D, 7F)
 There are   228 symmetry adapted cartesian basis functions of A   symmetry.
 There are   218 symmetry adapted basis functions of A   symmetry.
   218 basis functions,   374 primitive gaussians,   228 cartesian basis functions
    44 alpha electrons       44 beta electrons
       nuclear repulsion energy       650.9497421513 Hartrees.
 NAtoms=   15 NActive=   15 NUniq=   15 SFac= 1.00D+00 NAtFMM=   60 NAOKFM=F Big=F
 Integral buffers will be    131072 words long.
 Raffenetti 2 integral format.
 Two-electron integral symmetry is turned on.
 ------------------------------------------------------------------------------
 Polarizable Continuum Model (PCM)
 =================================
 Model                : PCM (using non-symmetric T matrix).
 Atomic radii         : SMD-Coulomb.
 Polarization charges : Total charges.
 Charge compensation  : None.
 Solution method      : On-the-fly selection.
 Cavity type          : VdW (van der Waals Surface) (Alpha=1.000).
 Cavity algorithm     : GePol (No added spheres)
                        Default sphere list used, NSphG=   15.
                        Lebedev-Laikov grids with approx.  5.0 points / Ang**2.
                        Smoothing algorithm: York/Karplus (Gamma=1.0000).
                        Polarization charges: spherical gaussians, with
                                              point-specific exponents (IZeta= 3).
                        Self-potential: point-specific (ISelfS= 7).
                        Self-field    : sphere-specific E.n sum rule (ISelfD= 2).
 1st derivatives      : Analytical E(r).r(x)/FMM algorithm (CHGder, D1EAlg=3).
                        Cavity 1st derivative terms included.
 Solvent              : Water, Eps=  78.355300 Eps(inf)=   1.777849
 ------------------------------------------------------------------------------
 Spheres list:
 ISph  on   Nord     Re0    Alpha      Xe            Ye            Ze
    1   P      1    2.1200  1.000     -2.006022     -0.087698      0.036223
    2   O      2    1.5200  1.000     -1.907809     -1.483536     -0.646451
    3   O      3    1.5200  1.000     -2.756878     -0.186030      1.419088
    4   O      4    1.5200  1.000     -2.539235      0.999061     -0.854824
    5   O      5    1.5200  1.000     -0.395844      0.333762      0.453330
    6   C      6    1.8500  1.000      0.495714      0.193130     -0.753315
    7   H      7    1.2000  1.000      0.299831      0.865975     -1.424116
    8   H      8    1.2000  1.000      0.425004     -0.689050     -1.151190
    9   C      9    1.8500  1.000      1.879134      0.418036     -0.105587
   10   O     10    1.5200  1.000      2.152135      1.524908      0.268847
   11   C     11    1.8500  1.000      2.739345     -0.729747      0.147571
   12   O     12    1.5200  1.000      4.111568     -0.602792      0.158034
   13   H     13    1.2000  1.000      4.366765     -0.336755     -0.574089
   14   H     14    1.2000  1.000      2.480755     -1.095234      1.008240
   15   H     15    1.2000  1.000      2.521321     -1.400966     -0.518399
 ------------------------------------------------------------------------------
 ------------------------------------------------------------------------------
 Atomic radii for non-electrostatic terms: SMD-CDS.
 ------------------------------------------------------------------------------
 Nuclear repulsion after PCM non-electrostatic terms =      650.9616824959 Hartrees.
 One-electron integrals computed using PRISM.
 NBasis=   218 RedAO= T EigKep=  1.62D-03  NBF=   218
 NBsUse=   218 1.00D-06 EigRej= -1.00D+00 NBFU=   218
 ExpMin= 6.85D-02 ExpMax= 7.75D+04 ExpMxC= 2.65D+03 IAcc=2 IRadAn=         4 AccDes= 0.00D+00
 Harris functional with IExCor= 1009 and IRadAn=       4 diagonalized for initial guess.
 HarFok:  IExCor= 1009 AccDes= 0.00D+00 IRadAn=         4 IDoV= 1 UseB2=F ITyADJ=14
 ICtDFT=  3500011 ScaDFX=  1.000000  1.000000  1.000000  1.000000
 FoFCou: FMM=F IPFlag=           0 FMFlag=      100000 FMFlg1=           0
         NFxFlg=           0 DoJE=T BraDBF=F KetDBF=T FulRan=T
         wScrn=  0.000000 ICntrl=     500 IOpCl=  0 I1Cent=   200000004 NGrid=           0
         NMat0=    1 NMatS0=      1 NMatT0=    0 NMatD0=    1 NMtDS0=    0 NMtDT0=    0
 Petite list used in FoFCou.
 Requested convergence on RMS density matrix=1.00D-08 within 128 cycles.
 Requested convergence on MAX density matrix=1.00D-06.
 Requested convergence on             energy=1.00D-06.
 No special actions if energy rises.
 Inv3:  Mode=1 IEnd=     4134828.
 Iteration    1 A*A^-1 deviation from unit magnitude is 3.11D-15 for    747.
 Iteration    1 A*A^-1 deviation from orthogonality  is 2.80D-15 for    751     56.
 Iteration    1 A^-1*A deviation from unit magnitude is 3.33D-15 for   1152.
 Iteration    1 A^-1*A deviation from orthogonality  is 3.97D-08 for   1028   1024.
 Iteration    2 A*A^-1 deviation from unit magnitude is 2.11D-15 for     91.
 Iteration    2 A*A^-1 deviation from orthogonality  is 2.36D-15 for   1069    571.
 Iteration    2 A^-1*A deviation from unit magnitude is 8.88D-16 for    364.
 Iteration    2 A^-1*A deviation from orthogonality  is 4.35D-16 for   1173    327.
 Error on total polarization charges =  0.05437
 SCF Done:  E(RM062X) =  -910.262310972     A.U. after   14 cycles
            NFock= 14  Conv=0.55D-08     -V/T= 2.0009
 SMD-CDS (non-electrostatic) energy       (kcal/mol) =       7.49
 (included in total energy above)

 **********************************************************************

            Population analysis using the SCF density.

 **********************************************************************

 Orbital symmetries:
       Occupied  (A) (A) (A) (A) (A) (A) (A) (A) (A) (A) (A) (A)
                 (A) (A) (A) (A) (A) (A) (A) (A) (A) (A) (A) (A)
                 (A) (A) (A) (A) (A) (A) (A) (A) (A) (A) (A) (A)
                 (A) (A) (A) (A) (A) (A) (A) (A)
       Virtual   (A) (A) (A) (A) (A) (A) (A) (A) (A) (A) (A) (A)
                 (A) (A) (A) (A) (A) (A) (A) (A) (A) (A) (A) (A)
                 (A) (A) (A) (A) (A) (A) (A) (A) (A) (A) (A) (A)
                 (A) (A) (A) (A) (A) (A) (A) (A) (A) (A) (A) (A)
                 (A) (A) (A) (A) (A) (A) (A) (A) (A) (A) (A) (A)
                 (A) (A) (A) (A) (A) (A) (A) (A) (A) (A) (A) (A)
                 (A) (A) (A) (A) (A) (A) (A) (A) (A) (A) (A) (A)
                 (A) (A) (A) (A) (A) (A) (A) (A) (A) (A) (A) (A)
                 (A) (A) (A) (A) (A) (A) (A) (A) (A) (A) (A) (A)
                 (A) (A) (A) (A) (A) (A) (A) (A) (A) (A) (A) (A)
                 (A) (A) (A) (A) (A) (A) (A) (A) (A) (A) (A) (A)
                 (A) (A) (A) (A) (A) (A) (A) (A) (A) (A) (A) (A)
                 (A) (A) (A) (A) (A) (A) (A) (A) (A) (A) (A) (A)
                 (A) (A) (A) (A) (A) (A) (A) (A) (A) (A) (A) (A)
                 (A) (A) (A) (A) (A) (A)
 The electronic state is 1-A.
 Alpha  occ. eigenvalues --  -78.08506 -19.62018 -19.61470 -19.60627 -19.53019
 Alpha  occ. eigenvalues --  -19.52257 -19.52244 -10.63035 -10.56340 -10.55624
 Alpha  occ. eigenvalues --   -6.89276  -5.01222  -5.01020  -5.01006  -1.20280
 Alpha  occ. eigenvalues --   -1.18043  -1.12864  -1.06092  -1.00516  -0.98877
 Alpha  occ. eigenvalues --   -0.87526  -0.80814  -0.67220  -0.61676  -0.59862
 Alpha  occ. eigenvalues --   -0.57450  -0.55318  -0.53659  -0.51244  -0.50707
 Alpha  occ. eigenvalues --   -0.46142  -0.45367  -0.45261  -0.43589  -0.42587
 Alpha  occ. eigenvalues --   -0.38267  -0.37260  -0.35925  -0.35410  -0.35114
 Alpha  occ. eigenvalues --   -0.32437  -0.31304  -0.30864  -0.28576
 Alpha virt. eigenvalues --    0.01244   0.10293   0.13127   0.13860   0.14914
 Alpha virt. eigenvalues --    0.16377   0.18027   0.19211   0.20237   0.23557
 Alpha virt. eigenvalues --    0.24007   0.24762   0.28148   0.31092   0.32779
 Alpha virt. eigenvalues --    0.33649   0.36249   0.37560   0.44144   0.47351
 Alpha virt. eigenvalues --    0.47729   0.48948   0.49974   0.52951   0.56499
 Alpha virt. eigenvalues --    0.57699   0.60010   0.63969   0.66185   0.67224
 Alpha virt. eigenvalues --    0.68899   0.70436   0.71536   0.73290   0.75871
 Alpha virt. eigenvalues --    0.77153   0.77575   0.80762   0.81572   0.83744
 Alpha virt. eigenvalues --    0.84807   0.86607   0.90137   0.92120   0.95190
 Alpha virt. eigenvalues --    0.95645   0.98223   1.00038   1.01422   1.02541
 Alpha virt. eigenvalues --    1.03383   1.04012   1.04781   1.06709   1.09874
 Alpha virt. eigenvalues --    1.11645   1.14160   1.20798   1.22713   1.25297
 Alpha virt. eigenvalues --    1.29183   1.29539   1.35471   1.38914   1.39567
 Alpha virt. eigenvalues --    1.42560   1.47348   1.49712   1.50924   1.55611
 Alpha virt. eigenvalues --    1.56768   1.58075   1.62071   1.63275   1.67131
 Alpha virt. eigenvalues --    1.68359   1.69993   1.72453   1.74207   1.76524
 Alpha virt. eigenvalues --    1.77998   1.78881   1.85888   1.89902   1.92666
 Alpha virt. eigenvalues --    1.96269   2.01440   2.09404   2.10139   2.17986
 Alpha virt. eigenvalues --    2.23847   2.31405   2.31787   2.35515   2.42259
 Alpha virt. eigenvalues --    2.51838   2.57311   2.62587   2.67287   2.73408
 Alpha virt. eigenvalues --    2.80249   2.82562   2.86875   2.88109   2.90738
 Alpha virt. eigenvalues --    2.91806   2.92950   2.95957   2.96353   2.97282
 Alpha virt. eigenvalues --    2.97664   2.98007   2.98168   2.99657   3.01743
 Alpha virt. eigenvalues --    3.02258   3.09041   3.10954   3.14706   3.15341
 Alpha virt. eigenvalues --    3.17736   3.21770   3.22421   3.24507   3.25583
 Alpha virt. eigenvalues --    3.26464   3.32848   3.39215   3.41055   3.48154
 Alpha virt. eigenvalues --    3.51168   3.57564   3.61066   3.61556   3.64284
 Alpha virt. eigenvalues --    3.94394   3.99746   4.03576   4.06426   4.10814
 Alpha virt. eigenvalues --    4.23304   4.37214   4.96509   4.97616   5.00191
 Alpha virt. eigenvalues --    5.01204   5.01439   5.02196   5.04333   5.05386
 Alpha virt. eigenvalues --    5.06179   5.08464   5.17170   5.22040   5.27935
 Alpha virt. eigenvalues --    5.31894   5.46467   5.49195   5.71719   6.11297
 Alpha virt. eigenvalues --    7.20351  14.08376  14.19812  14.22659  23.91763
 Alpha virt. eigenvalues --   24.09081  24.17474  49.96032  49.96529  49.98330
 Alpha virt. eigenvalues --   50.08120  50.09628  50.12701 163.38662
          Condensed to atoms (all electrons):
               1          2          3          4          5          6
     1  P   12.098249   0.489071   0.514814   0.527674   0.222161  -0.036548
     2  O    0.489071   8.545595  -0.045762  -0.043626  -0.036290  -0.003683
     3  O    0.514814  -0.045762   8.539729  -0.043942  -0.033905   0.000051
     4  O    0.527674  -0.043626  -0.043942   8.471170  -0.036886   0.000954
     5  O    0.222161  -0.036290  -0.033905  -0.036886   8.437547   0.207706
     6  C   -0.036548  -0.003683   0.000051   0.000954   0.207706   5.010370
     7  H   -0.009427  -0.003609  -0.000440   0.010112  -0.025390   0.389817
     8  H   -0.011965   0.027082  -0.000368  -0.002935  -0.031244   0.394813
     9  C    0.002251   0.000377  -0.000064  -0.000154  -0.040171   0.247713
    10  O   -0.000278  -0.000003  -0.000000   0.000001  -0.002221  -0.085427
    11  C   -0.000588   0.000025   0.000003  -0.000011   0.004376  -0.102379
    12  O    0.000007  -0.000000  -0.000000   0.000000  -0.000000   0.004311
    13  H    0.000008   0.000000   0.000000   0.000000   0.000014   0.000994
    14  H   -0.000248  -0.000008  -0.000021   0.000001   0.002875   0.004930
    15  H    0.000271  -0.000268   0.000002   0.000009  -0.000315   0.008742
               7          8          9         10         11         12
     1  P   -0.009427  -0.011965   0.002251  -0.000278  -0.000588   0.000007
     2  O   -0.003609   0.027082   0.000377  -0.000003   0.000025  -0.000000
     3  O   -0.000440  -0.000368  -0.000064  -0.000000   0.000003  -0.000000
     4  O    0.010112  -0.002935  -0.000154   0.000001  -0.000011   0.000000
     5  O   -0.025390  -0.031244  -0.040171  -0.002221   0.004376  -0.000000
     6  C    0.389817   0.394813   0.247713  -0.085427  -0.102379   0.004311
     7  H    0.507824  -0.035497  -0.018863   0.005944   0.007147  -0.000196
     8  H   -0.035497   0.537123  -0.038153   0.004126   0.005361  -0.000372
     9  C   -0.018863  -0.038153   4.939323   0.598802   0.246277  -0.022115
    10  O    0.005944   0.004126   0.598802   7.967833  -0.092151   0.002842
    11  C    0.007147   0.005361   0.246277  -0.092151   4.902594   0.264380
    12  O   -0.000196  -0.000372  -0.022115   0.002842   0.264380   7.923672
    13  H   -0.000024  -0.000192  -0.001109   0.003777  -0.051738   0.359117
    14  H    0.000315  -0.000269  -0.032841  -0.001670   0.399458  -0.025262
    15  H   -0.000772  -0.001552  -0.055741   0.005547   0.424732  -0.037740
              13         14         15
     1  P    0.000008  -0.000248   0.000271
     2  O    0.000000  -0.000008  -0.000268
     3  O    0.000000  -0.000021   0.000002
     4  O    0.000000   0.000001   0.000009
     5  O    0.000014   0.002875  -0.000315
     6  C    0.000994   0.004930   0.008742
     7  H   -0.000024   0.000315  -0.000772
     8  H   -0.000192  -0.000269  -0.001552
     9  C   -0.001109  -0.032841  -0.055741
    10  O    0.003777  -0.001670   0.005547
    11  C   -0.051738   0.399458   0.424732
    12  O    0.359117  -0.025262  -0.037740
    13  H    0.385840   0.007679  -0.003557
    14  H    0.007679   0.496277  -0.027212
    15  H   -0.003557  -0.027212   0.533923
 Mulliken charges:
               1
     1  P    1.204549
     2  O   -0.928900
     3  O   -0.930096
     4  O   -0.882367
     5  O   -0.668257
     6  C   -0.042362
     7  H    0.173058
     8  H    0.154042
     9  C    0.174467
    10  O   -0.407121
    11  C   -0.007486
    12  O   -0.468644
    13  H    0.299191
    14  H    0.175996
    15  H    0.153932
 Sum of Mulliken charges =  -2.00000
 Mulliken charges with hydrogens summed into heavy atoms:
               1
     1  P    1.204549
     2  O   -0.928900
     3  O   -0.930096
     4  O   -0.882367
     5  O   -0.668257
     6  C    0.284739
     9  C    0.174467
    10  O   -0.407121
    11  C    0.322441
    12  O   -0.169453
 Electronic spatial extent (au):  <R**2>=           2250.7993
 Charge=             -2.0000 electrons
 Dipole moment (field-independent basis, Debye):
    X=             21.1255    Y=             -1.0867    Z=             -4.6120  Tot=             21.6503
 Quadrupole moment (field-independent basis, Debye-Ang):
   XX=           -132.3083   YY=            -85.9054   ZZ=            -78.0292
   XY=             -8.2013   XZ=             -6.2262   YZ=             -1.1211
 Traceless Quadrupole moment (field-independent basis, Debye-Ang):
   XX=            -33.5606   YY=             12.8422   ZZ=             20.7184
   XY=             -8.2013   XZ=             -6.2262   YZ=             -1.1211
 Octapole moment (field-independent basis, Debye-Ang**2):
  XXX=            141.1605  YYY=              2.5991  ZZZ=            -11.6840  XYY=             25.7416
  XXY=             -3.9385  XXZ=            -52.5230  XZZ=             51.2781  YZZ=              1.0773
  YYZ=              7.1611  XYZ=             -5.2592
 Hexadecapole moment (field-independent basis, Debye-Ang**3):
 XXXX=          -2748.1543 YYYY=           -371.7383 ZZZZ=           -257.4908 XXXY=             31.7293
 XXXZ=           -102.7218 YYYX=            -41.5967 YYYZ=             -7.6463 ZZZX=             25.1929
 ZZZY=              1.9200 XXYY=           -525.3197 XXZZ=           -486.9453 YYZZ=           -100.3795
 XXYZ=             21.9779 YYXZ=            -26.1451 ZZXY=             -7.1595
 N-N= 6.509616824959D+02 E-N=-3.487096422248D+03  KE= 9.094671974391D+02
 D1PCM: PCM CHGder 1st derivatives, ID1Alg=3 FixD1E=F DoIter=F DoCFld=F I1PDM=0.
 Calling FoFJK, ICntrl=      2127 FMM=F ISym2X=0 I1Cent= 0 IOpClX= 0 NMat=1 NMatS=1 NMatT=0.
 ***** Axes restored to original set *****
 -------------------------------------------------------------------
 Center     Atomic                   Forces (Hartrees/Bohr)
 Number     Number              X              Y              Z
 -------------------------------------------------------------------
      1       15           0.015237617   -0.052553230    0.024623388
      2        8           0.012024572    0.020040122    0.006898423
      3        8          -0.006651467    0.017572592   -0.037128500
      4        8          -0.006201838    0.017772025   -0.003845073
      5        8          -0.035277604   -0.000008807   -0.020791736
      6        6           0.142497900   -0.021992297    0.065471369
      7        1          -0.054310497    0.099814430   -0.003318223
      8        1          -0.056397044   -0.090271969   -0.035182556
      9        6          -0.020760773    0.025222219    0.019952184
     10        8           0.013782784    0.021677716   -0.001372626
     11        6           0.008067997    0.069075812   -0.034623563
     12        8           0.139936641   -0.117752646    0.145451103
     13        1          -0.110973268    0.141655615   -0.165329123
     14        1           0.053486255   -0.071131553    0.075766300
     15        1          -0.094461275   -0.059120029   -0.036571368
 -------------------------------------------------------------------
 Cartesian Forces:  Max     0.165329123 RMS     0.068058221

 GradGradGradGradGradGradGradGradGradGradGradGradGradGradGradGradGradGrad
 Berny optimization.
 FormGI is forming the generalized inverse of G from B-inverse, IUseBI=4.
 Internal  Forces:  Max     0.244343348 RMS     0.046068188
 Search for a local minimum.
 Step number   1 out of a maximum of   68
 All quantities printed in internal units (Hartrees-Bohrs-Radians)
 Mixed Optimization -- RFO/linear search
 Second derivative matrix not updated -- first step.
 ITU=  0
     Eigenvalues ---    0.00230   0.00278   0.00836   0.01341   0.01880
     Eigenvalues ---    0.01981   0.05475   0.07100   0.07126   0.07702
     Eigenvalues ---    0.10114   0.12834   0.13044   0.14716   0.16000
     Eigenvalues ---    0.16821   0.17324   0.21896   0.22216   0.24854
     Eigenvalues ---    0.25000   0.25000   0.25000   0.25000   0.25000
     Eigenvalues ---    0.28166   0.31668   0.34044   0.37403   0.49447
     Eigenvalues ---    0.53305   0.53309   0.53345   0.53360   0.56016
     Eigenvalues ---    0.60536   0.75657   1.01102   1.04845
 RFO step:  Lambda=-1.49753984D-01 EMin= 2.30000000D-03
 Linear search not attempted -- first point.
 Maximum step size (   0.300) exceeded in Quadratic search.
    -- Step size scaled by   0.671
 Iteration  1 RMS(Cart)=  0.04902214 RMS(Int)=  0.00074059
 Iteration  2 RMS(Cart)=  0.00121365 RMS(Int)=  0.00018819
 Iteration  3 RMS(Cart)=  0.00000074 RMS(Int)=  0.00018819
 Variable       Old X    -DE/DX   Delta X   Delta X   Delta X     New X
                                 (Linear)    (Quad)   (Total)
    R1        2.94219  -0.02373   0.00000  -0.02107  -0.02107   2.92111
    R2        2.97940  -0.04031   0.00000  -0.03807  -0.03807   2.94133
    R3        2.84046   0.01771   0.00000   0.01310   0.01310   2.85356
    R4        3.24256  -0.01740   0.00000  -0.02380  -0.02380   3.21876
    R5        2.84756  -0.03508   0.00000  -0.05044  -0.05044   2.79713
    R6        1.83320   0.11331   0.00000   0.11120   0.11120   1.94439
    R7        1.83366   0.11178   0.00000   0.10977   0.10977   1.94343
    R8        2.91777  -0.01029   0.00000  -0.01600  -0.01600   2.90177
    R9        2.26759   0.02491   0.00000   0.01394   0.01394   2.28153
   R10        2.75243   0.03542   0.00000   0.04535   0.04535   2.79778
   R11        2.60428   0.03698   0.00000   0.03850   0.03850   2.64277
   R12        1.83333   0.11683   0.00000   0.11467   0.11467   1.94800
   R13        1.83370   0.11716   0.00000   0.11507   0.11507   1.94877
   R14        1.54900   0.24434   0.00000   0.14116   0.14116   1.69016
    A1        1.93768   0.01464   0.00000   0.02645   0.02622   1.96390
    A2        1.99396   0.00535   0.00000   0.00811   0.00784   2.00180
    A3        1.84170  -0.00435   0.00000  -0.00697  -0.00717   1.83452
    A4        1.97806   0.01138   0.00000   0.01820   0.01772   1.99578
    A5        1.82245  -0.01910   0.00000  -0.03169  -0.03198   1.79048
    A6        1.87486  -0.01311   0.00000  -0.02274  -0.02304   1.85182
    A7        1.91520   0.01349   0.00000   0.02263   0.02263   1.93783
    A8        1.94929  -0.00512   0.00000  -0.01161  -0.01157   1.93772
    A9        1.94989  -0.00778   0.00000  -0.01677  -0.01686   1.93303
   A10        1.75239   0.01221   0.00000   0.02095   0.02099   1.77339
   A11        1.90957   0.00618   0.00000   0.01494   0.01490   1.92447
   A12        1.94978  -0.00680   0.00000  -0.01406  -0.01400   1.93578
   A13        1.94952   0.00108   0.00000   0.00562   0.00569   1.95521
   A14        2.05908   0.00870   0.00000   0.01469   0.01469   2.07377
   A15        2.07978  -0.01031   0.00000  -0.01721  -0.01721   2.06258
   A16        2.13921   0.00168   0.00000   0.00289   0.00289   2.14210
   A17        2.11389  -0.03215   0.00000  -0.05853  -0.05857   2.05532
   A18        1.86884   0.00348   0.00000   0.00055   0.00020   1.86904
   A19        1.86828   0.00798   0.00000   0.01598   0.01639   1.88467
   A20        1.86855   0.00935   0.00000   0.01341   0.01274   1.88129
   A21        1.86780   0.01598   0.00000   0.03464   0.03485   1.90265
   A22        1.86333  -0.00224   0.00000  -0.00117  -0.00141   1.86192
   A23        1.91040   0.00175   0.00000   0.00379   0.00379   1.91419
    D1        0.90184  -0.00188   0.00000  -0.00171  -0.00170   0.90015
    D2        2.94591   0.00422   0.00000   0.01095   0.01074   2.95666
    D3       -1.23208   0.00113   0.00000   0.00457   0.00476  -1.22732
    D4        1.20608   0.00021   0.00000   0.00091   0.00098   1.20706
    D5       -0.93918   0.00161   0.00000   0.00223   0.00212  -0.93707
    D6       -3.00812  -0.00309   0.00000  -0.00873  -0.00868  -3.01681
    D7       -1.23519  -0.00050   0.00000  -0.00201  -0.00195  -1.23714
    D8        1.80078   0.00034   0.00000   0.00208   0.00214   1.80292
    D9        0.83343  -0.00257   0.00000  -0.00984  -0.00986   0.82357
   D10       -2.41379  -0.00172   0.00000  -0.00575  -0.00577  -2.41955
   D11        2.97879   0.00128   0.00000   0.00343   0.00338   2.98217
   D12       -0.26843   0.00213   0.00000   0.00751   0.00747  -0.26096
   D13        2.64399   0.00598   0.00000   0.02096   0.02072   2.66471
   D14       -1.49330  -0.00216   0.00000  -0.00419  -0.00398  -1.49728
   D15        0.49964   0.00071   0.00000   0.00231   0.00236   0.50200
   D16       -0.60831   0.00726   0.00000   0.02591   0.02566  -0.58265
   D17        1.53759  -0.00088   0.00000   0.00075   0.00096   1.53854
   D18       -2.75265   0.00199   0.00000   0.00726   0.00729  -2.74536
   D19       -1.05338  -0.00427   0.00000  -0.01420  -0.01394  -1.06732
   D20        3.08377   0.00665   0.00000   0.01703   0.01722   3.10099
   D21        1.09119  -0.00278   0.00000  -0.00439  -0.00484   1.08635
         Item               Value     Threshold  Converged?
 Maximum Force            0.244343     0.000450     NO 
 RMS     Force            0.046068     0.000300     NO 
 Maximum Displacement     0.183692     0.001800     NO 
 RMS     Displacement     0.049221     0.001200     NO 
 Predicted change in Energy=-7.364527D-02
 GradGradGradGradGradGradGradGradGradGradGradGradGradGradGradGradGradGrad

                          Input orientation:                          
 ---------------------------------------------------------------------
 Center     Atomic      Atomic             Coordinates (Angstroms)
 Number     Number       Type             X           Y           Z
 ---------------------------------------------------------------------
      1         15           0       22.385887   42.158447   16.889699
      2          8           0       21.666870   41.024565   16.123683
      3          8           0       23.048574   41.660934   18.207261
      4          8           0       21.582008   43.428100   17.037941
      5          8           0       23.731656   42.561154   15.926399
      6          6           0       23.324357   42.823035   14.527668
      7          1           0       22.778778   43.692680   14.458741
      8          1           0       22.784210   42.032917   14.151363
      9          6           0       24.685292   42.973257   13.832544
     10          8           0       25.348873   43.956231   14.058544
     11          6           0       25.181913   41.842417   13.016143
     12          8           0       26.050711   42.133823   11.959703
     13          1           0       25.639845   42.666205   11.370039
     14          1           0       25.669348   41.197877   13.656141
     15          1           0       24.364677   41.332360   12.648131
 ---------------------------------------------------------------------
                    Distance matrix (angstroms):
                    1          2          3          4          5
     1  P    0.000000
     2  O    1.545786   0.000000
     3  O    1.556484   2.579800   0.000000
     4  O    1.510038   2.572946   2.577014   0.000000
     5  O    1.703295   2.581350   2.545452   2.570624   0.000000
     6  C    2.627089   2.920449   3.868583   3.115021   1.480177
     7  H    2.901343   3.335747   4.272257   2.855614   2.083830
     8  H    2.770000   2.480981   4.081490   3.424055   2.080250
     9  C    3.911186   4.261173   4.851720   4.484621   2.337409
    10  O    4.475126   5.139709   5.269878   4.831666   2.837343
    11  C    4.787700   4.762480   5.615316   5.625706   3.330078
    12  O    6.142996   6.147133   6.947548   6.887159   4.614684
    13  H    6.427497   6.409107   7.380573   7.012249   4.940915
    14  H    4.707411   4.705171   5.272150   5.754721   3.281349
    15  H    4.752782   4.410484   5.722239   5.604089   3.557766
                    6          7          8          9         10
     6  C    0.000000
     7  H    1.028927   0.000000
     8  H    1.028421   1.687994   0.000000
     9  C    1.535548   2.131781   2.144761   0.000000
    10  O    2.367039   2.614384   3.207062   1.207333   0.000000
    11  C    2.587824   3.358514   2.659698   1.480520   2.362770
    12  O    3.808209   4.402359   3.934918   2.465066   2.866859
    13  H    3.918763   4.333525   4.036270   2.658831   2.996146
    14  H    2.983233   3.901744   3.044102   2.037513   2.805914
    15  H    2.614773   3.371127   2.290931   2.048944   3.137293
                   11         12         13         14         15
    11  C    0.000000
    12  O    1.398496   0.000000
    13  H    1.896836   0.894397   0.000000
    14  H    1.030836   1.974673   2.717190   0.000000
    15  H    1.031245   1.989720   2.244709   1.654188   0.000000
 Stoichiometry    C3H5O6P(2-)
 Framework group  C1[X(C3H5O6P)]
 Deg. of freedom    39
 Full point group                 C1      NOp   1
 Largest Abelian subgroup         C1      NOp   1
 Largest concise Abelian subgroup C1      NOp   1
                         Standard orientation:                         
 ---------------------------------------------------------------------
 Center     Atomic      Atomic             Coordinates (Angstroms)
 Number     Number       Type             X           Y           Z
 ---------------------------------------------------------------------
      1         15           0       -2.012622   -0.093561    0.037066
      2          8           0       -1.916057   -1.484990   -0.629307
      3          8           0       -2.705937   -0.146220    1.429613
      4          8           0       -2.515737    1.005708   -0.867753
      5          8           0       -0.409178    0.319866    0.436140
      6          6           0        0.483800    0.175861   -0.735516
      7          1           0        0.278286    0.890830   -1.446343
      8          1           0        0.402000   -0.765001   -1.142624
      9          6           0        1.863213    0.411920   -0.103532
     10          8           0        2.153272    1.525618    0.261427
     11          6           0        2.726590   -0.763819    0.149768
     12          8           0        4.111016   -0.566048    0.156300
     13          1           0        4.376327   -0.267478   -0.643957
     14          1           0        2.458406   -1.143995    1.069641
     15          1           0        2.493684   -1.486181   -0.548382
 ---------------------------------------------------------------------
 Rotational constants (GHZ):      2.8373093      0.5144920      0.4931133
 Standard basis: 6-311G(d,p) (5D, 7F)
 There are   228 symmetry adapted cartesian basis functions of A   symmetry.
 There are   218 symmetry adapted basis functions of A   symmetry.
   218 basis functions,   374 primitive gaussians,   228 cartesian basis functions
    44 alpha electrons       44 beta electrons
       nuclear repulsion energy       650.8602002227 Hartrees.
 NAtoms=   15 NActive=   15 NUniq=   15 SFac= 1.00D+00 NAtFMM=   60 NAOKFM=F Big=F
 Integral buffers will be    131072 words long.
 Raffenetti 2 integral format.
 Two-electron integral symmetry is turned on.
 ------------------------------------------------------------------------------
 Polarizable Continuum Model (PCM)
 =================================
 Model                : PCM (using non-symmetric T matrix).
 Atomic radii         : SMD-Coulomb.
 Polarization charges : Total charges.
 Charge compensation  : None.
 Solution method      : On-the-fly selection.
 Cavity type          : VdW (van der Waals Surface) (Alpha=1.000).
 Cavity algorithm     : GePol (No added spheres)
                        Default sphere list used, NSphG=   15.
                        Lebedev-Laikov grids with approx.  5.0 points / Ang**2.
                        Smoothing algorithm: York/Karplus (Gamma=1.0000).
                        Polarization charges: spherical gaussians, with
                                              point-specific exponents (IZeta= 3).
                        Self-potential: point-specific (ISelfS= 7).
                        Self-field    : sphere-specific E.n sum rule (ISelfD= 2).
 1st derivatives      : Analytical E(r).r(x)/FMM algorithm (CHGder, D1EAlg=3).
                        Cavity 1st derivative terms included.
 Solvent              : Water, Eps=  78.355300 Eps(inf)=   1.777849
 ------------------------------------------------------------------------------
 Spheres list:
 ISph  on   Nord     Re0    Alpha      Xe            Ye            Ze
    1   P      1    2.1200  1.000     -2.012622     -0.093561      0.037066
    2   O      2    1.5200  1.000     -1.916057     -1.484990     -0.629307
    3   O      3    1.5200  1.000     -2.705937     -0.146220      1.429613
    4   O      4    1.5200  1.000     -2.515737      1.005708     -0.867753
    5   O      5    1.5200  1.000     -0.409178      0.319866      0.436140
    6   C      6    1.8500  1.000      0.483800      0.175861     -0.735516
    7   H      7    1.2000  1.000      0.278286      0.890830     -1.446343
    8   H      8    1.2000  1.000      0.402000     -0.765001     -1.142624
    9   C      9    1.8500  1.000      1.863213      0.411920     -0.103532
   10   O     10    1.5200  1.000      2.153272      1.525618      0.261427
   11   C     11    1.8500  1.000      2.726590     -0.763819      0.149768
   12   O     12    1.5200  1.000      4.111016     -0.566048      0.156300
   13   H     13    1.2000  1.000      4.376327     -0.267478     -0.643957
   14   H     14    1.2000  1.000      2.458406     -1.143995      1.069641
   15   H     15    1.2000  1.000      2.493684     -1.486181     -0.548382
 ------------------------------------------------------------------------------
 ------------------------------------------------------------------------------
 Atomic radii for non-electrostatic terms: SMD-CDS.
 ------------------------------------------------------------------------------
 Nuclear repulsion after PCM non-electrostatic terms =      650.8719160547 Hartrees.
 One-electron integrals computed using PRISM.
 NBasis=   218 RedAO= T EigKep=  1.90D-03  NBF=   218
 NBsUse=   218 1.00D-06 EigRej= -1.00D+00 NBFU=   218
 Initial guess from the checkpoint file:  "sub_opt.chk"
 B after Tr=    -0.000000   -0.000000    0.000000
         Rot=    0.999987    0.004950   -0.000993    0.000515 Ang=   0.58 deg.
 ExpMin= 6.85D-02 ExpMax= 7.75D+04 ExpMxC= 2.65D+03 IAcc=2 IRadAn=         4 AccDes= 0.00D+00
 Harris functional with IExCor= 1009 and IRadAn=       4 diagonalized for initial guess.
 HarFok:  IExCor= 1009 AccDes= 0.00D+00 IRadAn=         4 IDoV= 1 UseB2=F ITyADJ=14
 ICtDFT=  3500011 ScaDFX=  1.000000  1.000000  1.000000  1.000000
 FoFCou: FMM=F IPFlag=           0 FMFlag=      100000 FMFlg1=           0
         NFxFlg=           0 DoJE=T BraDBF=F KetDBF=T FulRan=T
         wScrn=  0.000000 ICntrl=     500 IOpCl=  0 I1Cent=   200000004 NGrid=           0
         NMat0=    1 NMatS0=      1 NMatT0=    0 NMatD0=    1 NMtDS0=    0 NMtDT0=    0
 Petite list used in FoFCou.
 Requested convergence on RMS density matrix=1.00D-08 within 128 cycles.
 Requested convergence on MAX density matrix=1.00D-06.
 Requested convergence on             energy=1.00D-06.
 No special actions if energy rises.
 Inv3:  Mode=1 IEnd=     4212675.
 Iteration    1 A*A^-1 deviation from unit magnitude is 2.66D-15 for     24.
 Iteration    1 A*A^-1 deviation from orthogonality  is 2.71D-15 for    785     68.
 Iteration    1 A^-1*A deviation from unit magnitude is 3.00D-15 for    620.
 Iteration    1 A^-1*A deviation from orthogonality  is 3.90D-10 for    995    802.
 Iteration    2 A*A^-1 deviation from unit magnitude is 3.11D-15 for    111.
 Iteration    2 A*A^-1 deviation from orthogonality  is 3.03D-15 for    912    172.
 Iteration    2 A^-1*A deviation from unit magnitude is 1.11D-15 for    105.
 Iteration    2 A^-1*A deviation from orthogonality  is 5.48D-16 for   1162    366.
 Error on total polarization charges =  0.05517
 SCF Done:  E(RM062X) =  -910.332290126     A.U. after   12 cycles
            NFock= 12  Conv=0.53D-08     -V/T= 2.0016
 SMD-CDS (non-electrostatic) energy       (kcal/mol) =       7.35
 (included in total energy above)
 D1PCM: PCM CHGder 1st derivatives, ID1Alg=3 FixD1E=F DoIter=F DoCFld=F I1PDM=0.
 Calling FoFJK, ICntrl=      2127 FMM=F ISym2X=0 I1Cent= 0 IOpClX= 0 NMat=1 NMatS=1 NMatT=0.
 ***** Axes restored to original set *****
 -------------------------------------------------------------------
 Center     Atomic                   Forces (Hartrees/Bohr)
 Number     Number              X              Y              Z
 -------------------------------------------------------------------
      1       15           0.015344191   -0.034375736    0.016079016
      2        8           0.006081196    0.013440066    0.006050197
      3        8          -0.007577159    0.011210408   -0.023159355
      4        8          -0.005793250    0.010720602   -0.001912663
      5        8          -0.023949075    0.000340732   -0.018603464
      6        6           0.071445106   -0.012592350    0.037875453
      7        1          -0.022923030    0.043919380   -0.001960778
      8        1          -0.024283662   -0.038668770   -0.015067730
      9        6          -0.011553580    0.016134198    0.014310803
     10        8           0.005775510    0.008437215   -0.004753600
     11        6          -0.001454934    0.024856155   -0.022142008
     12        8           0.057613012   -0.040802093    0.053613623
     13        1          -0.042356524    0.052462079   -0.057013330
     14        1           0.023933385   -0.029918244    0.032622639
     15        1          -0.040301187   -0.025163642   -0.015938804
 -------------------------------------------------------------------
 Cartesian Forces:  Max     0.071445106 RMS     0.028953560

 GradGradGradGradGradGradGradGradGradGradGradGradGradGradGradGradGradGrad
 Berny optimization.
 Using GEDIIS/GDIIS optimizer.
 FormGI is forming the generalized inverse of G from B-inverse, IUseBI=4.
 Internal  Forces:  Max     0.088265384 RMS     0.019120567
 Search for a local minimum.
 Step number   2 out of a maximum of   68
 All quantities printed in internal units (Hartrees-Bohrs-Radians)
 Mixed Optimization -- RFO/linear search
 Update second derivatives using D2CorX and points    1    2
 DE= -7.00D-02 DEPred=-7.36D-02 R= 9.50D-01
 TightC=F SS=  1.41D+00  RLast= 3.03D-01 DXNew= 5.0454D-01 9.1045D-01
 Trust test= 9.50D-01 RLast= 3.03D-01 DXMaxT set to 5.05D-01
 ITU=  1  0
 Use linear search instead of GDIIS.
     Eigenvalues ---    0.00230   0.00278   0.00831   0.01341   0.01880
     Eigenvalues ---    0.01981   0.05834   0.07001   0.07127   0.07771
     Eigenvalues ---    0.10272   0.12475   0.13140   0.14538   0.15994
     Eigenvalues ---    0.17115   0.17590   0.21879   0.22183   0.24759
     Eigenvalues ---    0.24908   0.25000   0.25000   0.25000   0.25271
     Eigenvalues ---    0.28140   0.31280   0.34064   0.37386   0.49537
     Eigenvalues ---    0.53305   0.53322   0.53346   0.54164   0.57199
     Eigenvalues ---    0.60512   0.75532   1.04733   1.06142
 RFO step:  Lambda=-1.87825660D-02 EMin= 2.30002029D-03
 Quartic linear search produced a step of  1.11853.
 Iteration  1 RMS(Cart)=  0.13602477 RMS(Int)=  0.01372810
 Iteration  2 RMS(Cart)=  0.01891550 RMS(Int)=  0.00250799
 Iteration  3 RMS(Cart)=  0.00036366 RMS(Int)=  0.00249474
 Iteration  4 RMS(Cart)=  0.00000180 RMS(Int)=  0.00249474
 Iteration  5 RMS(Cart)=  0.00000002 RMS(Int)=  0.00249474
 Variable       Old X    -DE/DX   Delta X   Delta X   Delta X     New X
                                 (Linear)    (Quad)   (Total)
    R1        2.92111  -0.01570  -0.02357  -0.01938  -0.04295   2.87816
    R2        2.94133  -0.02642  -0.04259  -0.03550  -0.07808   2.86325
    R3        2.85356   0.01192   0.01465   0.01143   0.02609   2.87965
    R4        3.21876  -0.00827  -0.02662  -0.01104  -0.03766   3.18110
    R5        2.79713  -0.02497  -0.05641  -0.07758  -0.13399   2.66313
    R6        1.94439   0.04941   0.12437   0.01148   0.13586   2.08025
    R7        1.94343   0.04797   0.12278   0.00844   0.13122   2.07466
    R8        2.90177  -0.00714  -0.01790  -0.02502  -0.04291   2.85885
    R9        2.28153   0.00915   0.01559  -0.00432   0.01127   2.29280
   R10        2.79778   0.01825   0.05072   0.02625   0.07697   2.87475
   R11        2.64277   0.01447   0.04306  -0.00179   0.04127   2.68404
   R12        1.94800   0.05028   0.12826   0.00933   0.13760   2.08559
   R13        1.94877   0.05008   0.12871   0.00808   0.13679   2.08556
   R14        1.69016   0.08827   0.15789  -0.04605   0.11184   1.80201
    A1        1.96390   0.00698   0.02933   0.02630   0.05510   2.01900
    A2        2.00180  -0.00052   0.00877  -0.02281  -0.01481   1.98699
    A3        1.83452   0.00085  -0.00802   0.01954   0.01103   1.84555
    A4        1.99578   0.00387   0.01982  -0.00082   0.01730   2.01309
    A5        1.79048  -0.00781  -0.03577  -0.00802  -0.04459   1.74589
    A6        1.85182  -0.00576  -0.02577  -0.01345  -0.04007   1.81176
    A7        1.93783   0.01333   0.02532   0.06922   0.09453   2.03236
    A8        1.93772  -0.00311  -0.01294  -0.02168  -0.03381   1.90391
    A9        1.93303  -0.00450  -0.01885  -0.01814  -0.03823   1.89481
   A10        1.77339   0.00961   0.02348   0.04826   0.07194   1.84533
   A11        1.92447   0.00309   0.01666   0.01656   0.03298   1.95745
   A12        1.93578  -0.00499  -0.01566  -0.03763  -0.05244   1.88335
   A13        1.95521   0.00002   0.00636   0.01301   0.01960   1.97481
   A14        2.07377   0.00633   0.01643   0.02912   0.04451   2.11828
   A15        2.06258  -0.00400  -0.01925  -0.00210  -0.02241   2.04016
   A16        2.14210  -0.00224   0.00323  -0.01965  -0.01751   2.12459
   A17        2.05532  -0.01853  -0.06552  -0.07720  -0.14528   1.91004
   A18        1.86904   0.00182   0.00022  -0.03288  -0.04066   1.82838
   A19        1.88467   0.00521   0.01833   0.04684   0.06870   1.95336
   A20        1.88129   0.00360   0.01425  -0.03698  -0.03395   1.84734
   A21        1.90265   0.00976   0.03898   0.08225   0.12395   2.02661
   A22        1.86192  -0.00071  -0.00158   0.02414   0.02224   1.88416
   A23        1.91419  -0.00365   0.00423  -0.04881  -0.04457   1.86961
    D1        0.90015  -0.00124  -0.00190   0.05221   0.05051   0.95066
    D2        2.95666   0.00353   0.01201   0.08568   0.09661   3.05326
    D3       -1.22732   0.00180   0.00532   0.07529   0.08150  -1.14582
    D4        1.20706  -0.00035   0.00110  -0.04263  -0.04084   1.16623
    D5       -0.93707   0.00103   0.00237  -0.03592  -0.03453  -0.97160
    D6       -3.01681  -0.00225  -0.00971  -0.06936  -0.07878  -3.09559
    D7       -1.23714  -0.00026  -0.00218  -0.04012  -0.04215  -1.27929
    D8        1.80292   0.00056   0.00240   0.03737   0.04147   1.84439
    D9        0.82357  -0.00082  -0.01103  -0.05542  -0.06752   0.75605
   D10       -2.41955  -0.00000  -0.00645   0.02207   0.01609  -2.40346
   D11        2.98217  -0.00048   0.00378  -0.05226  -0.04987   2.93230
   D12       -0.26096   0.00034   0.00836   0.02523   0.03375  -0.22721
   D13        2.66471   0.00487   0.02318   0.16185   0.18129   2.84599
   D14       -1.49728  -0.00158  -0.00445   0.03372   0.03410  -1.46318
   D15        0.50200   0.00104   0.00263   0.06811   0.07196   0.57396
   D16       -0.58265   0.00625   0.02870   0.24564   0.26907  -0.31358
   D17        1.53854  -0.00020   0.00107   0.11751   0.12188   1.66042
   D18       -2.74536   0.00241   0.00816   0.15190   0.15974  -2.58562
   D19       -1.06732  -0.00302  -0.01559  -0.06966  -0.07978  -1.14709
   D20        3.10099   0.00451   0.01926   0.05740   0.07347  -3.10873
   D21        1.08635  -0.00164  -0.00541   0.00601  -0.00169   1.08466
         Item               Value     Threshold  Converged?
 Maximum Force            0.088265     0.000450     NO 
 RMS     Force            0.019121     0.000300     NO 
 Maximum Displacement     0.444968     0.001800     NO 
 RMS     Displacement     0.137413     0.001200     NO 
 Predicted change in Energy=-1.544088D-02
 GradGradGradGradGradGradGradGradGradGradGradGradGradGradGradGradGradGrad

                          Input orientation:                          
 ---------------------------------------------------------------------
 Center     Atomic      Atomic             Coordinates (Angstroms)
 Number     Number       Type             X           Y           Z
 ---------------------------------------------------------------------
      1         15           0       22.376625   42.166449   16.925583
      2          8           0       21.605773   41.021458   16.281778
      3          8           0       23.130419   41.819530   18.193323
      4          8           0       21.608630   43.482086   16.962739
      5          8           0       23.668362   42.484342   15.894039
      6          6           0       23.346347   42.746089   14.547252
      7          1           0       22.795414   43.697231   14.487183
      8          1           0       22.760711   41.903130   14.157704
      9          6           0       24.669634   42.929367   13.837319
     10          8           0       25.336599   43.930839   13.993197
     11          6           0       25.133022   41.791009   12.940867
     12          8           0       26.150842   42.260612   12.068591
     13          1           0       25.749246   42.901672   11.488007
     14          1           0       25.626664   41.078374   13.623882
     15          1           0       24.284712   41.271811   12.462536
 ---------------------------------------------------------------------
                    Distance matrix (angstroms):
                    1          2          3          4          5
     1  P    0.000000
     2  O    1.523057   0.000000
     3  O    1.515164   2.572055   0.000000
     4  O    1.523843   2.553117   2.567932   0.000000
     5  O    1.683367   2.558251   2.453174   2.525888   0.000000
     6  C    2.633022   3.002088   3.768153   3.065278   1.409270
     7  H    2.909377   3.434469   4.168149   2.753747   2.052409
     8  H    2.806781   2.573503   4.053381   3.418862   2.043649
     9  C    3.921391   4.359213   4.751388   4.409478   2.330384
    10  O    4.524755   5.255584   5.192871   4.787203   2.913514
    11  C    4.859696   4.918880   5.621346   5.608612   3.368555
    12  O    6.151744   6.320135   6.843234   6.787958   4.565831
    13  H    6.440681   6.609374   7.279461   6.888706   4.890538
    14  H    4.758981   4.820293   5.259311   5.750687   3.311391
    15  H    4.935582   4.671831   5.871483   5.683182   3.691251
                    6          7          8          9         10
     6  C    0.000000
     7  H    1.100820   0.000000
     8  H    1.097861   1.824434   0.000000
     9  C    1.512839   2.127120   2.190843   0.000000
    10  O    2.381535   2.599272   3.282357   1.213296   0.000000
    11  C    2.585509   3.389570   2.668543   1.521254   2.393264
    12  O    3.774207   4.378625   3.998146   2.402001   2.675212
    13  H    3.893213   4.284051   4.129856   2.585652   2.739606
    14  H    2.972160   3.952174   3.029666   2.094669   2.890863
    15  H    2.720306   3.492831   2.365320   2.187621   3.243428
                   11         12         13         14         15
    11  C    0.000000
    12  O    1.420335   0.000000
    13  H    1.929795   0.953580   0.000000
    14  H    1.103649   2.022716   2.810944   0.000000
    15  H    1.103629   2.148339   2.398127   1.785210   0.000000
 Stoichiometry    C3H5O6P(2-)
 Framework group  C1[X(C3H5O6P)]
 Deg. of freedom    39
 Full point group                 C1      NOp   1
 Largest Abelian subgroup         C1      NOp   1
 Largest concise Abelian subgroup C1      NOp   1
                         Standard orientation:                         
 ---------------------------------------------------------------------
 Center     Atomic      Atomic             Coordinates (Angstroms)
 Number     Number       Type             X           Y           Z
 ---------------------------------------------------------------------
      1         15           0       -2.040603   -0.083963    0.056998
      2          8           0       -2.081674   -1.478825   -0.553226
      3          8           0       -2.620067    0.039973    1.451482
      4          8           0       -2.431807    1.024484   -0.912745
      5          8           0       -0.418394    0.223404    0.385156
      6          6           0        0.477500    0.084317   -0.693766
      7          1           0        0.266316    0.865562   -1.439998
      8          1           0        0.369274   -0.925815   -1.109961
      9          6           0        1.852904    0.347451   -0.121310
     10          8           0        2.207932    1.467904    0.179733
     11          6           0        2.756762   -0.859456    0.080257
     12          8           0        4.099057   -0.423344    0.239638
     13          1           0        4.367507   -0.032906   -0.587893
     14          1           0        2.456912   -1.275147    1.057667
     15          1           0        2.585657   -1.634893   -0.686174
 ---------------------------------------------------------------------
 Rotational constants (GHZ):      2.9137043      0.5126029      0.4929595
 Standard basis: 6-311G(d,p) (5D, 7F)
 There are   228 symmetry adapted cartesian basis functions of A   symmetry.
 There are   218 symmetry adapted basis functions of A   symmetry.
   218 basis functions,   374 primitive gaussians,   228 cartesian basis functions
    44 alpha electrons       44 beta electrons
       nuclear repulsion energy       652.4971801582 Hartrees.
 NAtoms=   15 NActive=   15 NUniq=   15 SFac= 1.00D+00 NAtFMM=   60 NAOKFM=F Big=F
 Integral buffers will be    131072 words long.
 Raffenetti 2 integral format.
 Two-electron integral symmetry is turned on.
 ------------------------------------------------------------------------------
 Polarizable Continuum Model (PCM)
 =================================
 Model                : PCM (using non-symmetric T matrix).
 Atomic radii         : SMD-Coulomb.
 Polarization charges : Total charges.
 Charge compensation  : None.
 Solution method      : On-the-fly selection.
 Cavity type          : VdW (van der Waals Surface) (Alpha=1.000).
 Cavity algorithm     : GePol (No added spheres)
                        Default sphere list used, NSphG=   15.
                        Lebedev-Laikov grids with approx.  5.0 points / Ang**2.
                        Smoothing algorithm: York/Karplus (Gamma=1.0000).
                        Polarization charges: spherical gaussians, with
                                              point-specific exponents (IZeta= 3).
                        Self-potential: point-specific (ISelfS= 7).
                        Self-field    : sphere-specific E.n sum rule (ISelfD= 2).
 1st derivatives      : Analytical E(r).r(x)/FMM algorithm (CHGder, D1EAlg=3).
                        Cavity 1st derivative terms included.
 Solvent              : Water, Eps=  78.355300 Eps(inf)=   1.777849
 ------------------------------------------------------------------------------
 Spheres list:
 ISph  on   Nord     Re0    Alpha      Xe            Ye            Ze
    1   P      1    2.1200  1.000     -2.040603     -0.083963      0.056998
    2   O      2    1.5200  1.000     -2.081674     -1.478825     -0.553226
    3   O      3    1.5200  1.000     -2.620067      0.039973      1.451482
    4   O      4    1.5200  1.000     -2.431807      1.024484     -0.912745
    5   O      5    1.5200  1.000     -0.418394      0.223404      0.385156
    6   C      6    1.8500  1.000      0.477500      0.084317     -0.693766
    7   H      7    1.2000  1.000      0.266316      0.865562     -1.439998
    8   H      8    1.2000  1.000      0.369274     -0.925815     -1.109961
    9   C      9    1.8500  1.000      1.852904      0.347451     -0.121310
   10   O     10    1.5200  1.000      2.207932      1.467904      0.179733
   11   C     11    1.8500  1.000      2.756762     -0.859456      0.080257
   12   O     12    1.5200  1.000      4.099057     -0.423344      0.239638
   13   H     13    1.2000  1.000      4.367507     -0.032906     -0.587893
   14   H     14    1.2000  1.000      2.456912     -1.275147      1.057667
   15   H     15    1.2000  1.000      2.585657     -1.634893     -0.686174
 ------------------------------------------------------------------------------
 ------------------------------------------------------------------------------
 Atomic radii for non-electrostatic terms: SMD-CDS.
 ------------------------------------------------------------------------------
 Nuclear repulsion after PCM non-electrostatic terms =      652.5088082504 Hartrees.
 One-electron integrals computed using PRISM.
 NBasis=   218 RedAO= T EigKep=  1.96D-03  NBF=   218
 NBsUse=   218 1.00D-06 EigRej= -1.00D+00 NBFU=   218
 Initial guess from the checkpoint file:  "sub_opt.chk"
 B after Tr=     0.000000   -0.000000    0.000000
         Rot=    0.999702    0.023614   -0.002477    0.005729 Ang=   2.80 deg.
 ExpMin= 6.85D-02 ExpMax= 7.75D+04 ExpMxC= 2.65D+03 IAcc=2 IRadAn=         4 AccDes= 0.00D+00
 Harris functional with IExCor= 1009 and IRadAn=       4 diagonalized for initial guess.
 HarFok:  IExCor= 1009 AccDes= 0.00D+00 IRadAn=         4 IDoV= 1 UseB2=F ITyADJ=14
 ICtDFT=  3500011 ScaDFX=  1.000000  1.000000  1.000000  1.000000
 FoFCou: FMM=F IPFlag=           0 FMFlag=      100000 FMFlg1=           0
         NFxFlg=           0 DoJE=T BraDBF=F KetDBF=T FulRan=T
         wScrn=  0.000000 ICntrl=     500 IOpCl=  0 I1Cent=   200000004 NGrid=           0
         NMat0=    1 NMatS0=      1 NMatT0=    0 NMatD0=    1 NMtDS0=    0 NMtDT0=    0
 Petite list used in FoFCou.
 Requested convergence on RMS density matrix=1.00D-08 within 128 cycles.
 Requested convergence on MAX density matrix=1.00D-06.
 Requested convergence on             energy=1.00D-06.
 No special actions if energy rises.
 Inv3:  Mode=1 IEnd=     4248300.
 Iteration    1 A*A^-1 deviation from unit magnitude is 5.11D-15 for   1160.
 Iteration    1 A*A^-1 deviation from orthogonality  is 2.43D-15 for    791     73.
 Iteration    1 A^-1*A deviation from unit magnitude is 5.33D-15 for   1183.
 Iteration    1 A^-1*A deviation from orthogonality  is 5.00D-11 for    938    892.
 Error on total polarization charges =  0.05640
 SCF Done:  E(RM062X) =  -910.355809400     A.U. after   13 cycles
            NFock= 13  Conv=0.40D-08     -V/T= 2.0021
 SMD-CDS (non-electrostatic) energy       (kcal/mol) =       7.30
 (included in total energy above)
 D1PCM: PCM CHGder 1st derivatives, ID1Alg=3 FixD1E=F DoIter=F DoCFld=F I1PDM=0.
 Calling FoFJK, ICntrl=      2127 FMM=F ISym2X=0 I1Cent= 0 IOpClX= 0 NMat=1 NMatS=1 NMatT=0.
 ***** Axes restored to original set *****
 -------------------------------------------------------------------
 Center     Atomic                   Forces (Hartrees/Bohr)
 Number     Number              X              Y              Z
 -------------------------------------------------------------------
      1       15           0.004108800    0.005497641   -0.005037933
      2        8          -0.001469222   -0.003158296   -0.000271603
      3        8           0.000091853   -0.002863040    0.008271507
      4        8          -0.004241272    0.002249613    0.002011640
      5        8           0.005412335   -0.004116936    0.005183898
      6        6          -0.003321534    0.002509945    0.006957493
      7        1          -0.001483105   -0.004228230   -0.004811337
      8        1           0.001564356    0.005565545   -0.004999398
      9        6          -0.004672762   -0.002083925   -0.007009814
     10        8          -0.004225621   -0.005174965   -0.000782135
     11        6           0.013516374    0.007770042    0.007295290
     12        8          -0.002676537   -0.016106047    0.004080278
     13        1          -0.003583187    0.007385558   -0.006707096
     14        1          -0.005418049    0.000173512   -0.002929654
     15        1           0.006397572    0.006579582   -0.001251135
 -------------------------------------------------------------------
 Cartesian Forces:  Max     0.016106047 RMS     0.005507777

 GradGradGradGradGradGradGradGradGradGradGradGradGradGradGradGradGradGrad
 Berny optimization.
 Using GEDIIS/GDIIS optimizer.
 FormGI is forming the generalized inverse of G from B-inverse, IUseBI=4.
 Internal  Forces:  Max     0.016048422 RMS     0.004693462
 Search for a local minimum.
 Step number   3 out of a maximum of   68
 All quantities printed in internal units (Hartrees-Bohrs-Radians)
 Mixed Optimization -- RFO/linear search
 Update second derivatives using D2CorX and points    2    3
 DE= -2.35D-02 DEPred=-1.54D-02 R= 1.52D+00
 TightC=F SS=  1.41D+00  RLast= 6.36D-01 DXNew= 8.4853D-01 1.9072D+00
 Trust test= 1.52D+00 RLast= 6.36D-01 DXMaxT set to 8.49D-01
 ITU=  1  1  0
 Use linear search instead of GDIIS.
     Eigenvalues ---    0.00230   0.00278   0.00799   0.01297   0.01877
     Eigenvalues ---    0.01981   0.06431   0.06510   0.07233   0.08325
     Eigenvalues ---    0.10727   0.11512   0.13486   0.14103   0.16062
     Eigenvalues ---    0.17350   0.17952   0.21764   0.22732   0.24298
     Eigenvalues ---    0.24997   0.25000   0.25000   0.25045   0.25621
     Eigenvalues ---    0.28155   0.31590   0.34075   0.36813   0.46133
     Eigenvalues ---    0.49620   0.53321   0.53342   0.53418   0.56317
     Eigenvalues ---    0.60538   0.75431   0.98281   1.05103
 RFO step:  Lambda=-4.60267544D-03 EMin= 2.30105647D-03
 Quartic linear search produced a step of -0.14987.
 Iteration  1 RMS(Cart)=  0.07135665 RMS(Int)=  0.00246209
 Iteration  2 RMS(Cart)=  0.00304957 RMS(Int)=  0.00040201
 Iteration  3 RMS(Cart)=  0.00000605 RMS(Int)=  0.00040199
 Iteration  4 RMS(Cart)=  0.00000000 RMS(Int)=  0.00040199
 Variable       Old X    -DE/DX   Delta X   Delta X   Delta X     New X
                                 (Linear)    (Quad)   (Total)
    R1        2.87816   0.00325   0.00644  -0.00217   0.00426   2.88242
    R2        2.86325   0.00761   0.01170  -0.00067   0.01103   2.87427
    R3        2.87965   0.00412  -0.00391   0.00871   0.00480   2.88445
    R4        3.18110   0.00390   0.00564   0.00399   0.00963   3.19073
    R5        2.66313   0.01101   0.02008   0.00931   0.02939   2.69252
    R6        2.08025  -0.00264  -0.02036   0.01742  -0.00294   2.07731
    R7        2.07466  -0.00334  -0.01967   0.01560  -0.00406   2.07059
    R8        2.85885   0.00269   0.00643   0.00171   0.00814   2.86700
    R9        2.29280  -0.00669  -0.00169  -0.00339  -0.00508   2.28772
   R10        2.87475  -0.00214  -0.01154   0.00680  -0.00473   2.87002
   R11        2.68404  -0.00575  -0.00619  -0.00320  -0.00939   2.67466
   R12        2.08559  -0.00435  -0.02062   0.01503  -0.00560   2.08000
   R13        2.08556  -0.00747  -0.02050   0.01000  -0.01050   2.07505
   R14        1.80201   0.01055  -0.01676   0.02860   0.01184   1.81384
    A1        2.01900  -0.00480  -0.00826  -0.01015  -0.01853   2.00047
    A2        1.98699  -0.00272   0.00222  -0.01144  -0.00931   1.97768
    A3        1.84555  -0.00067  -0.00165  -0.00127  -0.00300   1.84255
    A4        2.01309  -0.00371  -0.00259  -0.00796  -0.01086   2.00223
    A5        1.74589   0.00912   0.00668   0.02402   0.03054   1.77643
    A6        1.81176   0.00683   0.00601   0.01765   0.02351   1.83526
    A7        2.03236   0.00151  -0.01417   0.01872   0.00455   2.03692
    A8        1.90391   0.00303   0.00507   0.02796   0.03275   1.93665
    A9        1.89481   0.00499   0.00573   0.03530   0.04124   1.93605
   A10        1.84533  -0.00062  -0.01078   0.01651   0.00574   1.85107
   A11        1.95745  -0.00278  -0.00494  -0.03093  -0.03706   1.92039
   A12        1.88335   0.00006   0.00786  -0.01262  -0.00545   1.87790
   A13        1.97481  -0.00433  -0.00294  -0.03137  -0.03474   1.94007
   A14        2.11828  -0.00278  -0.00667  -0.00350  -0.01156   2.10672
   A15        2.04016   0.00422   0.00336   0.01024   0.01222   2.05238
   A16        2.12459  -0.00146   0.00262  -0.00817  -0.00692   2.11768
   A17        1.91004   0.01605   0.02177   0.04111   0.06279   1.97283
   A18        1.82838  -0.00097   0.00609   0.00997   0.01581   1.84419
   A19        1.95336  -0.00533  -0.01030  -0.01968  -0.02990   1.92346
   A20        1.84734  -0.00103   0.00509   0.01417   0.01907   1.86641
   A21        2.02661  -0.00900  -0.01858  -0.03672  -0.05521   1.97140
   A22        1.88416   0.00084  -0.00333  -0.00336  -0.00664   1.87752
   A23        1.86961   0.00169   0.00668   0.00209   0.00877   1.87838
    D1        0.95066   0.00106  -0.00757   0.02717   0.01957   0.97023
    D2        3.05326  -0.00056  -0.01448   0.02585   0.01121   3.06447
    D3       -1.14582   0.00123  -0.01221   0.03241   0.02040  -1.12542
    D4        1.16623  -0.00037   0.00612  -0.05955  -0.05338   1.11284
    D5       -0.97160  -0.00195   0.00518  -0.06096  -0.05584  -1.02744
    D6       -3.09559   0.00084   0.01181  -0.05219  -0.04038  -3.13598
    D7       -1.27929   0.00092   0.00632   0.07074   0.07688  -1.20241
    D8        1.84439  -0.00047  -0.00621  -0.01858  -0.02503   1.81936
    D9        0.75605   0.00414   0.01012   0.10529   0.11508   0.87113
   D10       -2.40346   0.00275  -0.00241   0.01597   0.01318  -2.39028
   D11        2.93230  -0.00237   0.00747   0.03447   0.04253   2.97483
   D12       -0.22721  -0.00376  -0.00506  -0.05485  -0.05937  -0.28658
   D13        2.84599  -0.00030  -0.02717   0.11842   0.09112   2.93711
   D14       -1.46318   0.00504  -0.00511   0.15758   0.15245  -1.31074
   D15        0.57396   0.00282  -0.01078   0.14961   0.13876   0.71272
   D16       -0.31358  -0.00172  -0.04033   0.02880  -0.01151  -0.32510
   D17        1.66042   0.00363  -0.01827   0.06796   0.04982   1.71024
   D18       -2.58562   0.00141  -0.02394   0.05999   0.03613  -2.54949
   D19       -1.14709   0.00217   0.01196   0.02407   0.03622  -1.11088
   D20       -3.10873  -0.00345  -0.01101  -0.01309  -0.02430  -3.13303
   D21        1.08466   0.00170   0.00025   0.00316   0.00343   1.08809
         Item               Value     Threshold  Converged?
 Maximum Force            0.016048     0.000450     NO 
 RMS     Force            0.004693     0.000300     NO 
 Maximum Displacement     0.242564     0.001800     NO 
 RMS     Displacement     0.070920     0.001200     NO 
 Predicted change in Energy=-3.313560D-03
 GradGradGradGradGradGradGradGradGradGradGradGradGradGradGradGradGradGrad

                          Input orientation:                          
 ---------------------------------------------------------------------
 Center     Atomic      Atomic             Coordinates (Angstroms)
 Number     Number       Type             X           Y           Z
 ---------------------------------------------------------------------
      1         15           0       22.397317   42.178453   16.965030
      2          8           0       21.614765   41.016992   16.360710
      3          8           0       23.140332   41.841954   18.248828
      4          8           0       21.605281   43.482521   17.009019
      5          8           0       23.671107   42.471556   15.896173
      6          6           0       23.321878   42.728797   14.538976
      7          1           0       22.733634   43.653411   14.452737
      8          1           0       22.763928   41.887845   14.112276
      9          6           0       24.630477   42.947441   13.803106
     10          8           0       25.302121   43.931994   14.015518
     11          6           0       25.138044   41.820477   12.920539
     12          8           0       26.209206   42.212718   12.082672
     13          1           0       25.877605   42.884035   11.482110
     14          1           0       25.532436   41.058051   13.609505
     15          1           0       24.304870   41.367756   12.366803
 ---------------------------------------------------------------------
                    Distance matrix (angstroms):
                    1          2          3          4          5
     1  P    0.000000
     2  O    1.525313   0.000000
     3  O    1.521000   2.563768   0.000000
     4  O    1.526385   2.549358   2.566120   0.000000
     5  O    1.688463   2.561268   2.492611   2.555018   0.000000
     6  C    2.653947   3.027083   3.818699   3.100954   1.424822
     7  H    2.932615   3.441357   4.225766   2.799458   2.087857
     8  H    2.890858   2.671033   4.153896   3.503794   2.084701
     9  C    3.946659   4.400283   4.817373   4.440270   2.351124
    10  O    4.495822   5.252976   5.192544   4.778043   2.886165
    11  C    4.898739   4.989375   5.690517   5.653183   3.380859
    12  O    6.194280   6.390639   6.897604   6.861299   4.588217
    13  H    6.532432   6.742284   7.373403   7.011253   4.952042
    14  H    4.726926   4.787376   5.278256   5.732129   3.269769
    15  H    5.043776   4.828146   6.014917   5.771497   3.751863
                    6          7          8          9         10
     6  C    0.000000
     7  H    1.099263   0.000000
     8  H    1.095710   1.798348   0.000000
     9  C    1.517149   2.125659   2.168486   0.000000
    10  O    2.375511   2.620285   3.260419   1.210607   0.000000
    11  C    2.596699   3.389464   2.657292   1.518748   2.384199
[...]
 ! A11   A(7,6,8)              107.1484         -DE/DX =    0.0                 !
 ! A12   A(7,6,9)              108.0902         -DE/DX =    0.0                 !
 ! A13   A(8,6,9)              107.2992         -DE/DX =    0.0                 !
 ! A14   A(6,9,10)             123.405          -DE/DX =    0.0                 !
 ! A15   A(6,9,11)             116.3196         -DE/DX =    0.0                 !
 ! A16   A(10,9,11)            120.269          -DE/DX =    0.0                 !
 ! A17   A(9,11,12)            111.4777         -DE/DX =    0.0                 !
 ! A18   A(9,11,14)            109.2918         -DE/DX =    0.0                 !
 ! A19   A(9,11,15)            106.8775         -DE/DX =    0.0                 !
 ! A20   A(12,11,14)           109.8214         -DE/DX =    0.0                 !
 ! A21   A(12,11,15)           111.6192         -DE/DX =    0.0                 !
 ! A22   A(14,11,15)           107.6252         -DE/DX =    0.0                 !
 ! A23   A(11,12,13)           106.1713         -DE/DX =    0.0                 !
 ! D1    D(2,1,5,6)             59.9148         -DE/DX =    0.0                 !
 ! D2    D(3,1,5,6)            179.8013         -DE/DX =    0.0                 !
 ! D3    D(4,1,5,6)            -60.2512         -DE/DX =    0.0                 !
 ! D4    D(1,5,6,7)             53.3419         -DE/DX =    0.0                 !
 ! D5    D(1,5,6,8)            -66.7373         -DE/DX =    0.0                 !
 ! D6    D(1,5,6,9)            173.8344         -DE/DX =    0.0                 !
 ! D7    D(5,6,9,10)             7.7962         -DE/DX =    0.0                 !
 ! D8    D(5,6,9,11)          -171.2836         -DE/DX =    0.0                 !
 ! D9    D(7,6,9,10)           130.4849         -DE/DX =    0.0                 !
 ! D10   D(7,6,9,11)           -48.5949         -DE/DX =    0.0                 !
 ! D11   D(8,6,9,10)          -114.2622         -DE/DX =    0.0                 !
 ! D12   D(8,6,9,11)            66.658          -DE/DX =    0.0                 !
 ! D13   D(6,9,11,12)         -170.7569         -DE/DX =    0.0                 !
 ! D14   D(6,9,11,14)          -49.1696         -DE/DX =    0.0                 !
 ! D15   D(6,9,11,15)           67.0263         -DE/DX =    0.0                 !
 ! D16   D(10,9,11,12)          10.1325         -DE/DX =    0.0                 !
 ! D17   D(10,9,11,14)         131.7199         -DE/DX =    0.0                 !
 ! D18   D(10,9,11,15)        -112.0843         -DE/DX =    0.0                 !
 ! D19   D(9,11,12,13)         -20.462          -DE/DX =    0.0                 !
 ! D20   D(14,11,12,13)       -141.7415         -DE/DX =    0.0                 !
 ! D21   D(15,11,12,13)         98.9795         -DE/DX =    0.0                 !
 --------------------------------------------------------------------------------
 GradGradGradGradGradGradGradGradGradGradGradGradGradGradGradGradGradGrad

                          Input orientation:                          
 ---------------------------------------------------------------------
 Center     Atomic      Atomic             Coordinates (Angstroms)
 Number     Number       Type             X           Y           Z
 ---------------------------------------------------------------------
      1         15           0       22.306375   42.493886   16.999437
      2          8           0       22.097848   40.983628   17.087513
      3          8           0       22.744717   43.155566   18.297595
      4          8           0       21.198839   43.225381   16.247132
      5          8           0       23.681262   42.686848   16.040238
      6          6           0       23.595341   42.161269   14.741142
      7          1           0       22.713013   42.537488   14.206312
      8          1           0       23.525631   41.064565   14.750033
      9          6           0       24.814631   42.524832   13.943029
     10          8           0       25.789131   43.063272   14.421526
     11          6           0       24.770406   42.201984   12.467957
     12          8           0       26.029715   42.388324   11.860519
     13          1           0       26.526257   42.977745   12.445136
     14          1           0       24.443804   41.167141   12.334312
     15          1           0       24.006030   42.852071   12.022119
 ---------------------------------------------------------------------
                    Distance matrix (angstroms):
                    1          2          3          4          5
     1  P    0.000000
     2  O    1.527128   0.000000
     3  O    1.521572   2.569057   0.000000
     4  O    1.525675   2.557326   2.568855   0.000000
     5  O    1.687486   2.550479   2.488468   2.548577   0.000000
     6  C    2.621443   3.022380   3.789532   3.023833   1.404018
     7  H    2.822906   3.330800   4.137828   2.632654   2.079205
     8  H    2.930761   2.740243   4.191338   3.510611   2.078617
     9  C    3.953977   4.432155   4.862573   4.344377   2.389364
    10  O    4.370287   5.005794   4.929593   4.942661   2.684220
    11  C    5.166330   5.474235   6.244791   5.299584   3.765968
    12  O    6.346880   6.689859   7.267450   6.578784   4.803582
    13  H    6.227614   6.718554   6.970146   6.549647   4.593841
    14  H    5.300211   5.303782   6.511641   5.484187   4.077360
    15  H    5.271700   5.726295   6.408169   5.086297   4.034607
                    6          7          8          9         10
     6  C    0.000000
     7  H    1.098219   0.000000
     8  H    1.098953   1.767903   0.000000
     9  C    1.501942   2.118083   2.108354   0.000000
    10  O    2.393423   3.128140   3.037462   1.211827   0.000000
    11  C    2.559258   2.714278   2.837438   1.510637   2.365596
    12  O    3.778322   4.065157   4.046241   2.414935   2.659359
    13  H    3.811632   4.223316   4.239877   2.319154   2.111110
    14  H    2.738796   2.894455   2.586362   2.137477   3.124368
    15  H    2.835306   2.557647   3.296585   2.109696   2.996866
                   11         12         13         14         15
    11  C    0.000000
    12  O    1.410519   0.000000
    13  H    1.919724   0.967342   0.000000
    14  H    1.093357   2.056911   2.761735   0.000000
    15  H    1.098023   2.082420   2.558570   1.768643   0.000000
 Stoichiometry    C3H5O6P(2-)
 Framework group  C1[X(C3H5O6P)]
 Deg. of freedom    39
 Full point group                 C1      NOp   1
 Largest Abelian subgroup         C1      NOp   1
 Largest concise Abelian subgroup C1      NOp   1
                         Standard orientation:                         
 ---------------------------------------------------------------------
 Center     Atomic      Atomic             Coordinates (Angstroms)
 Number     Number       Type             X           Y           Z
 ---------------------------------------------------------------------
      1         15           0       -2.086366   -0.034102   -0.018098
      2          8           0       -2.272358   -0.800737    1.289495
      3          8           0       -2.876914    1.262195   -0.117230
      4          8           0       -2.139638   -0.916213   -1.261772
      5          8           0       -0.500543    0.540091    0.037379
      6          6           0        0.498598   -0.441224    0.137393
      7          1           0        0.405324   -1.200300   -0.650762
      8          1           0        0.456288   -0.967801    1.101044
      9          6           0        1.861537    0.180179    0.027467
     10          8           0        2.049670    1.377200    0.010964
     11          6           0        3.026062   -0.775288   -0.086494
     12          8           0        4.259995   -0.101446    0.027126
     13          1           0        4.079409    0.827218   -0.174673
     14          1           0        2.946237   -1.536782    0.694008
     15          1           0        2.929350   -1.281536   -1.056039
 ---------------------------------------------------------------------
 Rotational constants (GHZ):      3.2143995      0.4913692      0.4706197

 **********************************************************************

            Population analysis using the SCF density.

 **********************************************************************

 Orbital symmetries:
       Occupied  (A) (A) (A) (A) (A) (A) (A) (A) (A) (A) (A) (A)
                 (A) (A) (A) (A) (A) (A) (A) (A) (A) (A) (A) (A)
                 (A) (A) (A) (A) (A) (A) (A) (A) (A) (A) (A) (A)
                 (A) (A) (A) (A) (A) (A) (A) (A)
       Virtual   (A) (A) (A) (A) (A) (A) (A) (A) (A) (A) (A) (A)
                 (A) (A) (A) (A) (A) (A) (A) (A) (A) (A) (A) (A)
                 (A) (A) (A) (A) (A) (A) (A) (A) (A) (A) (A) (A)
                 (A) (A) (A) (A) (A) (A) (A) (A) (A) (A) (A) (A)
                 (A) (A) (A) (A) (A) (A) (A) (A) (A) (A) (A) (A)
                 (A) (A) (A) (A) (A) (A) (A) (A) (A) (A) (A) (A)
                 (A) (A) (A) (A) (A) (A) (A) (A) (A) (A) (A) (A)
                 (A) (A) (A) (A) (A) (A) (A) (A) (A) (A) (A) (A)
                 (A) (A) (A) (A) (A) (A) (A) (A) (A) (A) (A) (A)
                 (A) (A) (A) (A) (A) (A) (A) (A) (A) (A) (A) (A)
                 (A) (A) (A) (A) (A) (A) (A) (A) (A) (A) (A) (A)
                 (A) (A) (A) (A) (A) (A) (A) (A) (A) (A) (A) (A)
                 (A) (A) (A) (A) (A) (A) (A) (A) (A) (A) (A) (A)
                 (A) (A) (A) (A) (A) (A) (A) (A) (A) (A) (A) (A)
                 (A) (A) (A) (A) (A) (A)
 The electronic state is 1-A.
 Alpha  occ. eigenvalues --  -78.07816 -19.62766 -19.61550 -19.60509 -19.52454
 Alpha  occ. eigenvalues --  -19.52338 -19.52322 -10.63627 -10.58607 -10.58504
 Alpha  occ. eigenvalues --   -6.88741  -5.00704  -5.00482  -5.00463  -1.19422
 Alpha  occ. eigenvalues --   -1.15021  -1.13911  -1.06907  -1.00597  -1.00342
 Alpha  occ. eigenvalues --   -0.85531  -0.77087  -0.64341  -0.61174  -0.58186
 Alpha  occ. eigenvalues --   -0.56353  -0.55497  -0.52234  -0.51007  -0.49935
 Alpha  occ. eigenvalues --   -0.45961  -0.45064  -0.44418  -0.43604  -0.41993
 Alpha  occ. eigenvalues --   -0.36775  -0.36093  -0.35826  -0.35676  -0.35422
 Alpha  occ. eigenvalues --   -0.33383  -0.31872  -0.30977  -0.28771
 Alpha virt. eigenvalues --    0.02562   0.09243   0.11371   0.14514   0.14771
 Alpha virt. eigenvalues --    0.16869   0.17006   0.17662   0.19591   0.21731
 Alpha virt. eigenvalues --    0.26086   0.26894   0.29986   0.31265   0.32190
 Alpha virt. eigenvalues --    0.35746   0.37432   0.39123   0.41298   0.43350
 Alpha virt. eigenvalues --    0.45071   0.46356   0.48385   0.53640   0.54181
 Alpha virt. eigenvalues --    0.56529   0.57079   0.60247   0.62787   0.64055
 Alpha virt. eigenvalues --    0.64721   0.65238   0.69272   0.70885   0.76383
 Alpha virt. eigenvalues --    0.77858   0.79048   0.80690   0.82243   0.83338
 Alpha virt. eigenvalues --    0.85608   0.87522   0.89435   0.92179   0.92533
 Alpha virt. eigenvalues --    0.97062   0.99738   1.00750   1.01980   1.02490
 Alpha virt. eigenvalues --    1.03493   1.05184   1.09249   1.10439   1.11201
 Alpha virt. eigenvalues --    1.13134   1.14232   1.16540   1.23936   1.25234
 Alpha virt. eigenvalues --    1.26589   1.30288   1.35725   1.38167   1.39507
 Alpha virt. eigenvalues --    1.43962   1.44900   1.48965   1.53822   1.55312
 Alpha virt. eigenvalues --    1.56513   1.57543   1.58011   1.60786   1.62232
 Alpha virt. eigenvalues --    1.64514   1.65202   1.67838   1.70557   1.71461
 Alpha virt. eigenvalues --    1.76387   1.77615   1.78862   1.82642   1.89710
 Alpha virt. eigenvalues --    1.98405   2.00563   2.05062   2.08178   2.10869
 Alpha virt. eigenvalues --    2.12181   2.18730   2.25935   2.38378   2.41735
 Alpha virt. eigenvalues --    2.45231   2.47468   2.49959   2.53053   2.54981
 Alpha virt. eigenvalues --    2.56037   2.75223   2.79584   2.86357   2.91189
 Alpha virt. eigenvalues --    2.91257   2.92668   2.95248   2.96565   2.96723
 Alpha virt. eigenvalues --    2.96842   2.97507   2.97556   2.98131   2.99418
 Alpha virt. eigenvalues --    3.02930   3.03632   3.09313   3.13573   3.14938
 Alpha virt. eigenvalues --    3.19571   3.20133   3.21623   3.23760   3.24814
 Alpha virt. eigenvalues --    3.25850   3.26608   3.31887   3.40168   3.41430
 Alpha virt. eigenvalues --    3.51681   3.56346   3.59766   3.61193   3.61748
 Alpha virt. eigenvalues --    3.77340   3.83670   3.88484   3.99079   4.03141
 Alpha virt. eigenvalues --    4.10923   4.24375   4.94625   4.97888   4.99567
 Alpha virt. eigenvalues --    5.00363   5.01511   5.03744   5.04296   5.05894
 Alpha virt. eigenvalues --    5.07907   5.08376   5.14624   5.23661   5.31530
 Alpha virt. eigenvalues --    5.33276   5.40474   5.58569   5.70381   5.74961
 Alpha virt. eigenvalues --    7.24897  14.08923  14.21574  14.27603  23.82739
 Alpha virt. eigenvalues --   23.88749  23.92429  49.96518  49.97168  50.00007
 Alpha virt. eigenvalues --   50.00330  50.06588  50.09053 163.44187
          Condensed to atoms (all electrons):
               1          2          3          4          5          6
     1  P   12.054329   0.516766   0.541733   0.517392   0.231619  -0.040567
     2  O    0.516766   8.513393  -0.042933  -0.045927  -0.042062   0.002002
     3  O    0.541733  -0.042933   8.483182  -0.042912  -0.044183  -0.000427
     4  O    0.517392  -0.045927  -0.042912   8.511192  -0.041545  -0.005678
     5  O    0.231619  -0.042062  -0.044183  -0.041545   8.412779   0.215481
     6  C   -0.040567   0.002002  -0.000427  -0.005678   0.215481   5.050864
     7  H   -0.010441  -0.003788  -0.000514   0.021623  -0.037999   0.402703
     8  H   -0.008302   0.015170  -0.000511  -0.002535  -0.034462   0.393515
     9  C    0.000079   0.000433  -0.000051  -0.000140  -0.027073   0.229534
    10  O    0.000818  -0.000002  -0.000001  -0.000001   0.003045  -0.082752
    11  C    0.000103   0.000001   0.000000  -0.000016   0.002424  -0.110099
    12  O   -0.000020   0.000000  -0.000000  -0.000000  -0.000014   0.004210
    13  H   -0.000012   0.000000  -0.000000   0.000000  -0.000058   0.003730
    14  H    0.000064  -0.000030   0.000000   0.000012   0.000003   0.004802
    15  H   -0.000055   0.000007   0.000000  -0.000062  -0.000138   0.001302
               7          8          9         10         11         12
     1  P   -0.010441  -0.008302   0.000079   0.000818   0.000103  -0.000020
     2  O   -0.003788   0.015170   0.000433  -0.000002   0.000001   0.000000
     3  O   -0.000514  -0.000511  -0.000051  -0.000001   0.000000  -0.000000
     4  O    0.021623  -0.002535  -0.000140  -0.000001  -0.000016  -0.000000
     5  O   -0.037999  -0.034462  -0.027073   0.003045   0.002424  -0.000014
     6  C    0.402703   0.393515   0.229534  -0.082752  -0.110099   0.004210
     7  H    0.536934  -0.035381  -0.052437   0.002011   0.009351  -0.000068
     8  H   -0.035381   0.526391  -0.037923   0.001085   0.003430  -0.000188
     9  C   -0.052437  -0.037923   4.890128   0.611325   0.286284  -0.021003
    10  O    0.002011   0.001085   0.611325   7.958353  -0.097837  -0.009649
    11  C    0.009351   0.003430   0.286284  -0.097837   4.992517   0.258094
    12  O   -0.000068  -0.000188  -0.021003  -0.009649   0.258094   8.010151
    13  H   -0.000222  -0.000181  -0.010072   0.032366  -0.064972   0.329594
    14  H   -0.000891  -0.000937  -0.036978   0.002321   0.395542  -0.031373
    15  H   -0.000733   0.000615  -0.030913   0.000524   0.381888  -0.032123
              13         14         15
     1  P   -0.000012   0.000064  -0.000055
     2  O    0.000000  -0.000030   0.000007
     3  O   -0.000000   0.000000   0.000000
     4  O    0.000000   0.000012  -0.000062
     5  O   -0.000058   0.000003  -0.000138
     6  C    0.003730   0.004802   0.001302
     7  H   -0.000222  -0.000891  -0.000733
     8  H   -0.000181  -0.000937   0.000615
     9  C   -0.010072  -0.036978  -0.030913
    10  O    0.032366   0.002321   0.000524
    11  C   -0.064972   0.395542   0.381888
    12  O    0.329594  -0.031373  -0.032123
    13  H    0.401601   0.006300   0.002786
    14  H    0.006300   0.509368  -0.031013
    15  H    0.002786  -0.031013   0.525045
 Mulliken charges:
               1
     1  P    1.196491
     2  O   -0.913030
     3  O   -0.893383
     4  O   -0.911404
     5  O   -0.637819
     6  C   -0.068621
     7  H    0.169853
     8  H    0.180214
     9  C    0.198807
    10  O   -0.421607
    11  C   -0.056710
    12  O   -0.507613
    13  H    0.299141
    14  H    0.182808
    15  H    0.182871
 Sum of Mulliken charges =  -2.00000
 Mulliken charges with hydrogens summed into heavy atoms:
               1
     1  P    1.196491
     2  O   -0.913030
     3  O   -0.893383
     4  O   -0.911404
     5  O   -0.637819
     6  C    0.281446
     9  C    0.198807
    10  O   -0.421607
    11  C    0.308970
    12  O   -0.208472
 Electronic spatial extent (au):  <R**2>=           2315.4795
 Charge=             -2.0000 electrons
 Dipole moment (field-independent basis, Debye):
    X=             20.1914    Y=             -3.1176    Z=             -0.1376  Tot=             20.4311
 Quadrupole moment (field-independent basis, Debye-Ang):
   XX=           -139.8824   YY=            -82.3181   ZZ=            -79.6101
   XY=             -2.4375   XZ=             -2.3343   YZ=             -0.3955
 Traceless Quadrupole moment (field-independent basis, Debye-Ang):
   XX=            -39.2789   YY=             18.2855   ZZ=             20.9934
   XY=             -2.4375   XZ=             -2.3343   YZ=             -0.3955
 Octapole moment (field-independent basis, Debye-Ang**2):
  XXX=             81.1586  YYY=             -8.2207  ZZZ=             -0.5836  XYY=             43.2982
  XXY=             -3.2361  XXZ=             -8.9340  XZZ=             41.2510  YZZ=             12.3692
  YYZ=              1.7155  XYZ=             -2.9163
 Hexadecapole moment (field-independent basis, Debye-Ang**3):
 XXXX=          -3218.1157 YYYY=           -342.2444 ZZZZ=           -233.7002 XXXY=            137.4430
 XXXZ=            -33.9924 YYYX=              4.4185 YYYZ=             -1.3984 ZZZX=              0.5281
 ZZZY=             -0.7114 XXYY=           -518.1048 XXZZ=           -498.5535 YYZZ=            -95.7557
 XXYZ=             -0.3982 YYXZ=             -4.5665 ZZXY=            -28.6898
 N-N= 6.506195384278D+02 E-N=-3.485949096732D+03  KE= 9.084620466807D+02
 1\1\NSC-N195\FOpt\RM062X\6-311G(d,p)\C3H5O6P1(2-)\X_GABOA\28-Feb-2023\
 0\\#M062X/6-311G** scrf=smd opt\\SUB in PS state\\-2,1\P,22.3063752892
 ,42.4938862119,16.9994368499\O,22.0978480273,40.9836280683,17.08751304
 13\O,22.7447173208,43.1555661574,18.2975954712\O,21.1988388195,43.2253
 811064,16.2471318981\O,23.6812615877,42.6868477237,16.0402378915\C,23.
 5953411273,42.1612688729,14.7411415572\H,22.7130134595,42.5374881476,1
 4.2063124854\H,23.5256309905,41.0645654751,14.7500327342\C,24.81463115
 72,42.5248322692,13.9430290199\O,25.7891305051,43.0632715817,14.421525
 5455\C,24.7704058483,42.201983599,12.4679572458\O,26.0297145974,42.388
 3239477,11.86051863\H,26.5262572001,42.977745027,12.4451363709\H,24.44
 38038768,41.1671409125,12.3343124855\H,24.0060301931,42.8520708997,12.
 0221187737\\Version=ES64L-G09RevE.01\State=1-A\HF=-910.3671248\RMSD=4.
 158e-09\RMSF=1.813e-05\Dipole=3.7926232,-0.533256,-7.0671353\Quadrupol
 e=-3.5784558,15.4430692,-11.8646134,0.1179579,21.2033685,-1.172201\PG=
 C01 [X(C3H5O6P1)]\\@


 KNOWING HOW CONTENTED, FREE, AND JOYFUL IS LIFE IN
 THE REALMS OF SCIENCE, ONE FERVENTLY WISHES THAT
 MANY WOULD ENTER HER PORTALS.
   --  DMITRI IVANOVICH MENDELEEV
 "FIRST PRINCIPLES OF CHEMISTRY", LONGMANS, GREEN,
 AND CO.  LONDON, 1891
 Job cpu time:       0 days  3 hours 21 minutes 36.1 seconds.
 File lengths (MBytes):  RWF=     77 Int=      0 D2E=      0 Chk=     12 Scr=      1
 Normal termination of Gaussian 09 at Tue Feb 28 14:56:44 2023.
