 Entering Gaussian System, Link 0=/software/sse/easybuild/prefix/software/Gaussian/09.E.01-avx-nsc1-bdist/g09/g09.orig
 Input=sub_esp.wrap
 Output=sub_esp.log
 Initial command:
 /software/sse/easybuild/prefix/software/Gaussian/09.E.01-avx-nsc1-bdist/g09/l1.exe "/scratch/local/Gau-73672.inp" -scrdir="/scratch/local/"
 Entering Link 1 = /software/sse/easybuild/prefix/software/Gaussian/09.E.01-avx-nsc1-bdist/g09/l1.exe PID=     73673.
  
 Copyright (c) 1988,1990,1992,1993,1995,1998,2003,2009,2015,
            Gaussian, Inc.  All Rights Reserved.
  
 This is part of the Gaussian(R) 09 program.  It is based on
 the Gaussian(R) 03 system (copyright 2003, Gaussian, Inc.),
 the Gaussian(R) 98 system (copyright 1998, Gaussian, Inc.),
 the Gaussian(R) 94 system (copyright 1995, Gaussian, Inc.),
 the Gaussian 92(TM) system (copyright 1992, Gaussian, Inc.),
 the Gaussian 90(TM) system (copyright 1990, Gaussian, Inc.),
 the Gaussian 88(TM) system (copyright 1988, Gaussian, Inc.),
 the Gaussian 86(TM) system (copyright 1986, Carnegie Mellon
 University), and the Gaussian 82(TM) system (copyright 1983,
 Carnegie Mellon University). Gaussian is a federally registered
 trademark of Gaussian, Inc.
  
 This software contains proprietary and confidential information,
 including trade secrets, belonging to Gaussian, Inc.
  
 This software is provided under written license and may be
 used, copied, transmitted, or stored only in accord with that
 written license.
  
 The following legend is applicable only to US Government
 contracts under FAR:
  
                    RESTRICTED RIGHTS LEGEND
  
 Use, reproduction and disclosure by the US Government is
 subject to restrictions as set forth in subparagraphs (a)
 and (c) of the Commercial Computer Software - Restricted
 Rights clause in FAR 52.227-19.
  
 Gaussian, Inc.
 340 Quinnipiac St., Bldg. 40, Wallingford CT 06492
  
  
 ---------------------------------------------------------------
 Warning -- This program may not be used in any manner that
 competes with the business of Gaussian, Inc. or will provide
 assistance to any competitor of Gaussian, Inc.  The licensee
 of this program is prohibited from giving any competitor of
 Gaussian, Inc. access to this program.  By using this program,
 the user acknowledges that Gaussian, Inc. is engaged in the
 business of creating and licensing software in the field of
 computational chemistry and represents and warrants to the
 licensee that it is not a competitor of Gaussian, Inc. and that
 it will not use this program in any manner prohibited above.
 ---------------------------------------------------------------
  

 Cite this work as:
 Gaussian 09, Revision E.01,
 M. J. Frisch, G. W. Trucks, H. B. Schlegel, G. E. Scuseria, 
 M. A. Robb, J. R. Cheeseman, G. Scalmani, V. Barone, B. Mennucci, 
 G. A. Petersson, H. Nakatsuji, M. Caricato, X. Li, H. P. Hratchian, 
 A. F. Izmaylov, J. Bloino, G. Zheng, J. L. Sonnenberg, M. Hada, 
 M. Ehara, K. Toyota, R. Fukuda, J. Hasegawa, M. Ishida, T. Nakajima, 
 Y. Honda, O. Kitao, H. Nakai, T. Vreven, J. A. Montgomery, Jr., 
 J. E. Peralta, F. Ogliaro, M. Bearpark, J. J. Heyd, E. Brothers, 
 K. N. Kudin, V. N. Staroverov, T. Keith, R. Kobayashi, J. Normand, 
 K. Raghavachari, A. Rendell, J. C. Burant, S. S. Iyengar, J. Tomasi, 
 M. Cossi, N. Rega, J. M. Millam, M. Klene, J. E. Knox, J. B. Cross, 
 V. Bakken, C. Adamo, J. Jaramillo, R. Gomperts, R. E. Stratmann, 
 O. Yazyev, A. J. Austin, R. Cammi, C. Pomelli, J. W. Ochterski, 
 R. L. Martin, K. Morokuma, V. G. Zakrzewski, G. A. Voth, 
 P. Salvador, J. J. Dannenberg, S. Dapprich, A. D. Daniels, 
 O. Farkas, J. B. Foresman, J. V. Ortiz, J. Cioslowski, 
 and D. J. Fox, Gaussian, Inc., Wallingford CT, 2013.
 
 ******************************************
 Gaussian 09:  ES64L-G09RevE.01 30-Nov-2015
                28-Feb-2023 
 ******************************************
 %nproc=8
 Will use up to    8 processors via shared memory.
 %chk=sub_esp
 ----------------------------------------------------------------------
 #HF/6-31G* scrf=smd SCF=tight Test Pop=MK iop(6/33=2) iop(6/42=6) # io
 p(6/50=1)
 ----------------------------------------------------------------------
 1/38=1/1;
 2/12=2,17=6,18=5,40=1/2;
 3/5=1,6=6,7=1,11=9,16=1,25=1,30=1,70=32201,72=1/1,2,3;
 4//1;
 5/5=2,32=2,38=5/2;
 6/7=2,8=2,9=2,10=2,15=8,20=1,28=1,33=2,42=6,50=1/1,2;
 99/5=1,9=1/99;
 ------------
 RESP charges
 ------------
 Symbolic Z-matrix:
 Charge = -2 Multiplicity = 1
 P                    -2.08637  -0.0341   -0.0181 
 O                    -2.27236  -0.80074   1.2895 
 O                    -2.87691   1.2622   -0.11723 
 O                    -2.13964  -0.91621  -1.26177 
 O                    -0.50054   0.54009   0.03738 
 C                     0.4986   -0.44122   0.13739 
 H                     0.40532  -1.2003   -0.65076 
 H                     0.45629  -0.9678    1.10104 
 C                     1.86154   0.18018   0.02747 
 O                     2.04967   1.3772    0.01096 
 C                     3.02606  -0.77529  -0.08649 
 O                     4.25999  -0.10145   0.02713 
 H                     4.07941   0.82722  -0.17467 
 H                     2.94624  -1.53678   0.69401 
 H                     2.92935  -1.28154  -1.05604 
 
                          Input orientation:                          
 ---------------------------------------------------------------------
 Center     Atomic      Atomic             Coordinates (Angstroms)
 Number     Number       Type             X           Y           Z
 ---------------------------------------------------------------------
      1         15           0       -2.086366   -0.034102   -0.018098
      2          8           0       -2.272358   -0.800737    1.289495
      3          8           0       -2.876914    1.262195   -0.117230
      4          8           0       -2.139638   -0.916213   -1.261772
      5          8           0       -0.500543    0.540091    0.037379
      6          6           0        0.498598   -0.441224    0.137393
      7          1           0        0.405324   -1.200300   -0.650762
      8          1           0        0.456288   -0.967801    1.101044
      9          6           0        1.861537    0.180179    0.027467
     10          8           0        2.049670    1.377200    0.010964
     11          6           0        3.026062   -0.775288   -0.086494
     12          8           0        4.259995   -0.101446    0.027126
     13          1           0        4.079409    0.827218   -0.174673
     14          1           0        2.946237   -1.536782    0.694008
     15          1           0        2.929350   -1.281536   -1.056039
 ---------------------------------------------------------------------
                    Distance matrix (angstroms):
                    1          2          3          4          5
     1  P    0.000000
     2  O    1.527129   0.000000
     3  O    1.521571   2.569057   0.000000
     4  O    1.525675   2.557325   2.568855   0.000000
     5  O    1.687486   2.550479   2.488469   2.548577   0.000000
     6  C    2.621443   3.022381   3.789532   3.023833   1.404017
     7  H    2.822906   3.330800   4.137828   2.632655   2.079205
     8  H    2.930761   2.740243   4.191337   3.510611   2.078617
     9  C    3.953977   4.432155   4.862573   4.344377   2.389363
    10  O    4.370287   5.005794   4.929593   4.942661   2.684220
    11  C    5.166329   5.474235   6.244790   5.299584   3.765967
    12  O    6.346879   6.689859   7.267450   6.578785   4.803582
    13  H    6.227613   6.718554   6.970146   6.549647   4.593840
    14  H    5.300211   5.303782   6.511641   5.484187   4.077359
    15  H    5.271700   5.726296   6.408169   5.086298   4.034607
                    6          7          8          9         10
     6  C    0.000000
     7  H    1.098219   0.000000
     8  H    1.098953   1.767902   0.000000
     9  C    1.501941   2.118082   2.108353   0.000000
    10  O    2.393423   3.128140   3.037461   1.211827   0.000000
    11  C    2.559257   2.714277   2.837437   1.510637   2.365596
    12  O    3.778322   4.065157   4.046240   2.414936   2.659359
    13  H    3.811632   4.223315   4.239877   2.319154   2.111109
    14  H    2.738796   2.894454   2.586361   2.137477   3.124368
    15  H    2.835306   2.557647   3.296585   2.109697   2.996867
                   11         12         13         14         15
    11  C    0.000000
    12  O    1.410519   0.000000
    13  H    1.919724   0.967342   0.000000
    14  H    1.093357   2.056911   2.761735   0.000000
    15  H    1.098024   2.082420   2.558571   1.768644   0.000000
 Stoichiometry    C3H5O6P(2-)
 Framework group  C1[X(C3H5O6P)]
 Deg. of freedom    39
 Full point group                 C1      NOp   1
 Largest Abelian subgroup         C1      NOp   1
 Largest concise Abelian subgroup C1      NOp   1
                         Standard orientation:                         
 ---------------------------------------------------------------------
 Center     Atomic      Atomic             Coordinates (Angstroms)
 Number     Number       Type             X           Y           Z
 ---------------------------------------------------------------------
      1         15           0       -2.086366   -0.034102   -0.018098
      2          8           0       -2.272358   -0.800737    1.289495
      3          8           0       -2.876914    1.262195   -0.117230
      4          8           0       -2.139638   -0.916213   -1.261772
      5          8           0       -0.500543    0.540091    0.037379
      6          6           0        0.498598   -0.441224    0.137393
      7          1           0        0.405324   -1.200300   -0.650762
      8          1           0        0.456288   -0.967801    1.101044
      9          6           0        1.861537    0.180179    0.027467
     10          8           0        2.049670    1.377200    0.010964
     11          6           0        3.026062   -0.775288   -0.086494
     12          8           0        4.259995   -0.101446    0.027126
     13          1           0        4.079409    0.827218   -0.174673
     14          1           0        2.946237   -1.536782    0.694008
     15          1           0        2.929350   -1.281536   -1.056039
 ---------------------------------------------------------------------
 Rotational constants (GHZ):      3.2144002      0.4913692      0.4706198
 Standard basis: 6-31G(d) (6D, 7F)
 There are   164 symmetry adapted cartesian basis functions of A   symmetry.
 There are   164 symmetry adapted basis functions of A   symmetry.
   164 basis functions,   324 primitive gaussians,   164 cartesian basis functions
    44 alpha electrons       44 beta electrons
       nuclear repulsion energy       650.6083239711 Hartrees.
 NAtoms=   15 NActive=   15 NUniq=   15 SFac= 1.00D+00 NAtFMM=   60 NAOKFM=F Big=F
 Integral buffers will be    131072 words long.
 Raffenetti 1 integral format.
 Two-electron integral symmetry is turned on.
 ------------------------------------------------------------------------------
 Polarizable Continuum Model (PCM)
 =================================
 Model                : PCM (using non-symmetric T matrix).
 Atomic radii         : SMD-Coulomb.
 Polarization charges : Total charges.
 Charge compensation  : None.
 Solution method      : On-the-fly selection.
 Cavity type          : VdW (van der Waals Surface) (Alpha=1.000).
 Cavity algorithm     : GePol (No added spheres)
                        Default sphere list used, NSphG=   15.
                        Lebedev-Laikov grids with approx.  5.0 points / Ang**2.
                        Smoothing algorithm: York/Karplus (Gamma=1.0000).
                        Polarization charges: spherical gaussians, with
                                              point-specific exponents (IZeta= 3).
                        Self-potential: point-specific (ISelfS= 7).
                        Self-field    : sphere-specific E.n sum rule (ISelfD= 2).
 Solvent              : Water, Eps=  78.355300 Eps(inf)=   1.777849
 ------------------------------------------------------------------------------
 Spheres list:
 ISph  on   Nord     Re0    Alpha      Xe            Ye            Ze
    1   P      1    2.1200  1.000     -2.086366     -0.034102     -0.018098
    2   O      2    1.5200  1.000     -2.272358     -0.800737      1.289495
    3   O      3    1.5200  1.000     -2.876914      1.262195     -0.117230
    4   O      4    1.5200  1.000     -2.139638     -0.916213     -1.261772
    5   O      5    1.5200  1.000     -0.500543      0.540091      0.037379
    6   C      6    1.8500  1.000      0.498598     -0.441224      0.137393
    7   H      7    1.2000  1.000      0.405324     -1.200300     -0.650762
    8   H      8    1.2000  1.000      0.456288     -0.967801      1.101044
    9   C      9    1.8500  1.000      1.861537      0.180179      0.027467
   10   O     10    1.5200  1.000      2.049670      1.377200      0.010964
   11   C     11    1.8500  1.000      3.026062     -0.775288     -0.086494
   12   O     12    1.5200  1.000      4.259995     -0.101446      0.027126
   13   H     13    1.2000  1.000      4.079409      0.827218     -0.174673
   14   H     14    1.2000  1.000      2.946237     -1.536782      0.694008
   15   H     15    1.2000  1.000      2.929350     -1.281536     -1.056039
 ------------------------------------------------------------------------------
 ------------------------------------------------------------------------------
 Atomic radii for non-electrostatic terms: SMD-CDS.
 ------------------------------------------------------------------------------
 Nuclear repulsion after PCM non-electrostatic terms =      650.6195673000 Hartrees.
 One-electron integrals computed using PRISM.
 NBasis=   164 RedAO= T EigKep=  3.34D-03  NBF=   164
 NBsUse=   164 1.00D-06 EigRej= -1.00D+00 NBFU=   164
 ExpMin= 9.98D-02 ExpMax= 1.94D+04 ExpMxC= 2.91D+03 IAcc=2 IRadAn=         4 AccDes= 0.00D+00
 Harris functional with IExCor=  205 and IRadAn=       4 diagonalized for initial guess.
 HarFok:  IExCor=  205 AccDes= 0.00D+00 IRadAn=         4 IDoV= 1 UseB2=F ITyADJ=14
 ICtDFT=  3500011 ScaDFX=  1.000000  1.000000  1.000000  1.000000
 FoFCou: FMM=F IPFlag=           0 FMFlag=      100000 FMFlg1=           0
         NFxFlg=           0 DoJE=T BraDBF=F KetDBF=T FulRan=T
         wScrn=  0.000000 ICntrl=     500 IOpCl=  0 I1Cent=   200000004 NGrid=           0
         NMat0=    1 NMatS0=      1 NMatT0=    0 NMatD0=    1 NMtDS0=    0 NMtDT0=    0
 Petite list used in FoFCou.
 Keep R1 ints in memory in canonical form, NReq=96187482.
 Requested convergence on RMS density matrix=1.00D-08 within 128 cycles.
 Requested convergence on MAX density matrix=1.00D-06.
 Requested convergence on             energy=1.00D-06.
 No special actions if energy rises.
 Inv3:  Mode=1 IEnd=     4099683.
 Iteration    1 A*A^-1 deviation from unit magnitude is 3.77D-15 for   1143.
 Iteration    1 A*A^-1 deviation from orthogonality  is 3.17D-15 for   1152    606.
 Iteration    1 A^-1*A deviation from unit magnitude is 3.22D-15 for   1143.
 Iteration    1 A^-1*A deviation from orthogonality  is 1.10D-11 for   1065   1050.
 Error on total polarization charges =  0.04386
 SCF Done:  E(RHF) =  -906.771360625     A.U. after   13 cycles
            NFock= 13  Conv=0.97D-08     -V/T= 2.0022
 SMD-CDS (non-electrostatic) energy       (kcal/mol) =       7.06
 (included in total energy above)

 **********************************************************************

            Population analysis using the SCF density.

 **********************************************************************

 Orbital symmetries:
 BldTbl:  Degeneracy threshold= 1.00D-02
       Occupied  (A) (A) (A) (A) (A) (A) (A) (A) (A) (A) (A) (A)
                 (A) (A) (A) (A) (A) (A) (A) (A) (A) (A) (A) (A)
                 (A) (A) (A) (A) (A) (A) (A) (A) (A) (A) (A) (A)
                 (A) (A) (A) (A) (A) (A) (A) (A)
       Virtual   (A) (A) (A) (A) (A) (A) (A) (A) (A) (A) (A) (A)
                 (A) (A) (A) (A) (A) (A) (A) (A) (A) (A) (A) (A)
                 (A) (A) (A) (A) (A) (A) (A) (A) (A) (A) (A) (A)
                 (A) (A) (A) (A) (A) (A) (A) (A) (A) (A) (A) (A)
                 (A) (A) (A) (A) (A) (A) (A) (A) (A) (A) (A) (A)
                 (A) (A) (A) (A) (A) (A) (A) (A) (A) (A) (A) (A)
                 (A) (A) (A) (A) (A) (A) (A) (A) (A) (A) (A) (A)
                 (A) (A) (A) (A) (A) (A) (A) (A) (A) (A) (A) (A)
                 (A) (A) (A) (A) (A) (A) (A) (A) (A) (A) (A) (A)
                 (A) (A) (A) (A) (A) (A) (A) (A) (A) (A) (A) (A)
 The electronic state is 1-A.
 Alpha  occ. eigenvalues --  -80.02133 -20.57182 -20.56823 -20.55077 -20.46567
 Alpha  occ. eigenvalues --  -20.46480 -20.46461 -11.34250 -11.28219 -11.27983
 Alpha  occ. eigenvalues --   -7.54212  -5.44144  -5.44006  -5.43982  -1.41685
 Alpha  occ. eigenvalues --   -1.36747  -1.35731  -1.27691  -1.21178  -1.20940
 Alpha  occ. eigenvalues --   -1.02419  -0.92366  -0.76517  -0.72940  -0.69418
 Alpha  occ. eigenvalues --   -0.66783  -0.66020  -0.62907  -0.61333  -0.59771
 Alpha  occ. eigenvalues --   -0.55522  -0.54893  -0.54391  -0.52086  -0.51507
 Alpha  occ. eigenvalues --   -0.46172  -0.44985  -0.44859  -0.44567  -0.44395
 Alpha  occ. eigenvalues --   -0.42011  -0.40432  -0.39684  -0.37268
 Alpha virt. eigenvalues --    0.15565   0.24642   0.26728   0.28886   0.32778
 Alpha virt. eigenvalues --    0.33331   0.33369   0.34509   0.37318   0.39822
 Alpha virt. eigenvalues --    0.41270   0.44287   0.48080   0.52018   0.53685
 Alpha virt. eigenvalues --    0.57634   0.59744   0.64187   0.64650   0.76003
 Alpha virt. eigenvalues --    0.78617   0.81470   0.83220   0.84910   0.88422
 Alpha virt. eigenvalues --    0.92235   0.95225   0.96442   1.00553   1.02205
 Alpha virt. eigenvalues --    1.05878   1.06268   1.07356   1.08711   1.11018
 Alpha virt. eigenvalues --    1.11657   1.13948   1.16823   1.19424   1.20548
 Alpha virt. eigenvalues --    1.23129   1.24016   1.25787   1.27310   1.29844
 Alpha virt. eigenvalues --    1.35316   1.35577   1.35856   1.36722   1.38511
 Alpha virt. eigenvalues --    1.39348   1.43281   1.44183   1.48017   1.52436
 Alpha virt. eigenvalues --    1.57039   1.59207   1.61590   1.63405   1.65016
 Alpha virt. eigenvalues --    1.67488   1.70421   1.71881   1.79500   1.85319
 Alpha virt. eigenvalues --    1.89330   1.91501   1.96526   2.02455   2.03669
 Alpha virt. eigenvalues --    2.06000   2.09602   2.11667   2.13098   2.14618
 Alpha virt. eigenvalues --    2.15855   2.16875   2.17380   2.17881   2.18329
 Alpha virt. eigenvalues --    2.19224   2.21769   2.23619   2.29948   2.35510
 Alpha virt. eigenvalues --    2.36177   2.40982   2.44494   2.48375   2.49413
 Alpha virt. eigenvalues --    2.52901   2.55356   2.64468   2.68093   2.68582
 Alpha virt. eigenvalues --    2.69203   2.71908   2.77906   2.80849   2.84985
 Alpha virt. eigenvalues --    2.94371   2.96289   3.05569   3.10974   3.19780
 Alpha virt. eigenvalues --    3.22583   3.24010   3.27693   3.38178   3.41823
 Alpha virt. eigenvalues --    3.93192   4.17812   4.18556   4.19070   4.34671
 Alpha virt. eigenvalues --    4.40816   4.45822   4.61362   4.77555   4.91812
          Condensed to atoms (all electrons):
               1          2          3          4          5          6
     1  P   11.779848   0.513245   0.531529   0.513995   0.216339  -0.015874
     2  O    0.513245   8.597240  -0.041857  -0.043768  -0.038201  -0.000355
     3  O    0.531529  -0.041857   8.565050  -0.041738  -0.043395  -0.000084
     4  O    0.513995  -0.043768  -0.041738   8.594506  -0.037959  -0.004769
     5  O    0.216339  -0.038201  -0.043395  -0.037959   8.607950   0.185885
     6  C   -0.015874  -0.000355  -0.000084  -0.004769   0.185885   4.964881
     7  H   -0.002631  -0.000929  -0.000057   0.010381  -0.036403   0.389649
     8  H   -0.001317   0.006790  -0.000056  -0.000393  -0.034913   0.384284
     9  C   -0.001232   0.000194  -0.000040  -0.000018  -0.031774   0.315220
    10  O   -0.000044  -0.000001  -0.000001  -0.000000   0.001282  -0.065555
    11  C    0.000026   0.000001   0.000000  -0.000001   0.001901  -0.093458
    12  O   -0.000001   0.000000  -0.000000  -0.000000  -0.000009   0.002501
    13  H   -0.000000   0.000000  -0.000000   0.000000  -0.000013   0.001206
    14  H    0.000004  -0.000001  -0.000000   0.000000   0.000002   0.002305
    15  H   -0.000022   0.000000   0.000000  -0.000002  -0.000073   0.001898
               7          8          9         10         11         12
     1  P   -0.002631  -0.001317  -0.001232  -0.000044   0.000026  -0.000001
     2  O   -0.000929   0.006790   0.000194  -0.000001   0.000001   0.000000
     3  O   -0.000057  -0.000056  -0.000040  -0.000001   0.000000  -0.000000
     4  O    0.010381  -0.000393  -0.000018  -0.000000  -0.000001  -0.000000
     5  O   -0.036403  -0.034913  -0.031774   0.001282   0.001901  -0.000009
     6  C    0.389649   0.384284   0.315220  -0.065555  -0.093458   0.002501
     7  H    0.501250  -0.032512  -0.042623   0.001236   0.004213   0.000001
     8  H   -0.032512   0.500011  -0.037274   0.000264   0.002153  -0.000060
     9  C   -0.042623  -0.037274   4.502932   0.541274   0.348037  -0.024407
    10  O    0.001236   0.000264   0.541274   8.216732  -0.071442  -0.010115
    11  C    0.004213   0.002153   0.348037  -0.071442   4.913158   0.210596
    12  O    0.000001  -0.000060  -0.024407  -0.010115   0.210596   8.453077
    13  H   -0.000036  -0.000034  -0.011903   0.025951  -0.033331   0.255202
    14  H   -0.000086  -0.000297  -0.034765   0.001533   0.393868  -0.034928
    15  H   -0.000344   0.000357  -0.036576   0.000174   0.385589  -0.035105
              13         14         15
     1  P   -0.000000   0.000004  -0.000022
     2  O    0.000000  -0.000001   0.000000
     3  O   -0.000000  -0.000000   0.000000
     4  O    0.000000   0.000000  -0.000002
     5  O   -0.000013   0.000002  -0.000073
     6  C    0.001206   0.002305   0.001898
     7  H   -0.000036  -0.000086  -0.000344
     8  H   -0.000034  -0.000297   0.000357
     9  C   -0.011903  -0.034765  -0.036576
    10  O    0.025951   0.001533   0.000174
    11  C   -0.033331   0.393868   0.385589
    12  O    0.255202  -0.034928  -0.035105
    13  H    0.265212   0.003921   0.001542
    14  H    0.003921   0.478437  -0.031506
    15  H    0.001542  -0.031506   0.499194
 Mulliken charges:
               1
     1  P    1.466135
     2  O   -0.992359
     3  O   -0.969352
     4  O   -0.990234
     5  O   -0.790619
     6  C   -0.067737
     7  H    0.208889
     8  H    0.212998
     9  C    0.512956
    10  O   -0.641287
    11  C   -0.061310
    12  O   -0.816752
    13  H    0.492283
    14  H    0.221513
    15  H    0.214874
 Sum of Mulliken charges =  -2.00000
 Mulliken charges with hydrogens summed into heavy atoms:
               1
     1  P    1.466135
     2  O   -0.992359
     3  O   -0.969352
     4  O   -0.990234
     5  O   -0.790619
     6  C    0.354151
     9  C    0.512956
    10  O   -0.641287
    11  C    0.375077
    12  O   -0.324469
 DipInt: DoE/N= T F RetVal/Mat= T F Init=T NMatP=  1 IDeriv=0 Min/MaxMlt=  0  4
 Entering OneElI...
 OneElI was handed   134146313 working-precision words.
 Multipole integrals L=0 to 4 MinM= 0 MaxM= 0.
 Requested accuracy = 0.1000D-12
 ShPair: Thresh= 1.00D-13 NBox=     0 BxSize= 0.00D+00 RnKept= 1.37D+01
         NSMCal=                 1326 NSMKep=                1154
 PrsmSu:  NPrtUS=   1 ThrOK=F IAlg=1 NPAlg=1 LenDen=           0.
 Prism:   IPart=     0 DynPar=F LinDyn=F Incr=          11.
 PRISM was handed   134026197 working-precision words and  1154 shell-pairs
 IPart=  0 NShTot=        1154 NBatch=          51 AvBLen=        22.6
 PrSmSu:  NxtVal=             12.
 Electronic moments (au):
        -88.00000000          7.93989643         -1.39097054         -0.06110481
      -1896.07273584       -254.49435049       -164.11109630         -2.25564985
         -1.79893232         -0.30993984      -3358.22726367       -127.11114034
         -9.57105898         91.29884842         15.91202727         35.94450351
        406.82556175        193.25955204         25.00469129        -28.47754553
     -72182.00430567      -1811.44509337      -1173.07673003       2854.53694589
         79.11617349         82.98413459        -13.27661182         85.29032013
        -14.83495010      -5297.22962212      -3128.62994962       -554.51346284
         79.10483930        -91.66864302       -605.52311103
 Electronic spatial extent (au):  <R**2>=           2314.6782
 DipInt: DoE/N= F T RetVal/Mat= T F Init=T NMatP=  1 IDeriv=0 Min/MaxMlt=  0  4
 Nuclear    moments (au):
         86.00000000          0.00000000          0.00000000          0.00000000
       1791.72997732        193.66551328        105.69512558         -0.00000000
          0.00003831          0.00001558       3454.29002534        114.01103758
          8.72268798        -33.83823479        -21.06966203        -49.29483401
       -351.24103003       -176.03303143        -22.70799642         24.26688011
      63649.12972297        928.24455273        580.57391052      -2487.01347898
       -174.51749561        -75.64911300          9.71146149        -83.51291727
         12.74067500       3940.77827363       1824.59159589        308.43075410
        -81.21088069         79.10806574        530.96995313
 Total      moments (au):
         -2.00000000          7.93989643         -1.39097054         -0.06110481
       -104.34275852        -60.82883722        -58.41597071         -2.25564985
         -1.79889401         -0.30992426         96.06276167        -13.10010277
         -0.84837100         57.46061363         -5.15763476        -13.35033050
         55.58453172         17.22652061          2.29669486         -4.21066542
      -8532.87458270       -883.20054064       -592.50281951        367.52346691
        -95.40132212          7.33502160         -3.56515033          1.77740286
         -2.09427509      -1356.45134849      -1304.03835373       -246.08270874
         -2.10604140        -12.56057728        -74.55315790
 Traceless Quadrup. (au):
        -29.81356970         13.70035160         16.11321810         -2.25564985
         -1.79889401         -0.30992426
 Charge=             -2.0000 electrons
 Dipole moment (field-independent basis, Debye):
    X=             20.1812    Y=             -3.5355    Z=             -0.1553  Tot=             20.4891
 Quadrupole moment (field-independent basis, Debye-Ang):
   XX=           -140.3446   YY=            -81.8169   ZZ=            -78.5715
   XY=             -3.0339   XZ=             -2.4196   YZ=             -0.4169
 Traceless Quadrupole moment (field-independent basis, Debye-Ang):
   XX=            -40.1003   YY=             18.4274   ZZ=             21.6728
   XY=             -3.0339   XZ=             -2.4196   YZ=             -0.4169
 Octapole moment (field-independent basis, Debye-Ang**2):
  XXX=             68.3738  YYY=             -9.3241  ZZZ=             -0.6038  XYY=             40.8982
  XXY=             -3.6710  XXZ=             -9.5023  XZZ=             39.5629  YZZ=             12.2612
  YYZ=              1.6347  XYZ=             -2.9970
 Hexadecapole moment (field-independent basis, Debye-Ang**3):
 XXXX=          -3213.8895 YYYY=           -332.6557 ZZZZ=           -223.1650 XXXY=            138.4270
 XXXZ=            -35.9327 YYYX=              2.7627 YYYZ=             -1.3428 ZZZX=              0.6695
 ZZZY=             -0.7888 XXYY=           -510.9046 XXZZ=           -491.1633 YYZZ=            -92.6865
 XXYZ=             -0.7932 YYXZ=             -4.7309 ZZXY=            -28.0803
 N-N= 6.506195673000D+02 E-N=-3.481387384157D+03  KE= 9.047591773650D+02
 Entering OneElI...
 OneElI was handed   134159304 working-precision words.
 Calculate electrostatic properties
    NBasis =   164  MinDer = 0  MaxDer = 0
    NGrid  =    15  NMatD  =   1
 Requested accuracy = 0.1000D-12
 ShPair: Thresh= 1.00D-13 NBox=     0 BxSize= 0.00D+00 RnKept= 1.37D+01
         NSMCal=                 1326 NSMKep=                1084
 PrsmSu:  NPrtUS=   8 ThrOK=T IAlg=1 NPAlg=1 LenDen=           0.
 Prism:   IPart=     0 DynPar=F LinDyn=F Incr=          20.
 PRISM was handed    16719846 working-precision words and  1084 shell-pairs
 PRISM was handed    16719846 working-precision words and  1084 shell-pairs
 PRISM was handed    16719846 working-precision words and  1084 shell-pairs
 PRISM was handed    16719846 working-precision words and  1084 shell-pairs
 PRISM was handed    16719846 working-precision words and  1084 shell-pairs
 PRISM was handed    16719846 working-precision words and  1084 shell-pairs
 PRISM was handed    16719846 working-precision words and  1084 shell-pairs
 PRISM was handed    16719846 working-precision words and  1084 shell-pairs
 IPart=  1 NShTot=        2265 NBatch=         151 AvBLen=        15.0
 IPart=  0 NShTot=        2385 NBatch=         159 AvBLen=        15.0
 IPart=  7 NShTot=        1725 NBatch=         115 AvBLen=        15.0
 IPart=  4 NShTot=        1965 NBatch=         131 AvBLen=        15.0
 IPart=  5 NShTot=        1890 NBatch=         126 AvBLen=        15.0
 IPart=  2 NShTot=        2190 NBatch=         146 AvBLen=        15.0
 IPart=  6 NShTot=        1815 NBatch=         121 AvBLen=        15.0
 IPart=  3 NShTot=        2025 NBatch=         135 AvBLen=        15.0
 PrSmSu:  NxtVal=            161.
 --------------------------------------------------------
       Center         ----      EFG at Nuclei      ----
                      3XX-RR        3YY-RR        3ZZ-RR
 --------------------------------------------------------
     1   Atom       -0.761414      0.338963      0.422451
     2   Atom        0.367961      0.187174     -0.555135
     3   Atom        0.032287     -0.578200      0.545914
     4   Atom        0.380688      0.066458     -0.447146
     5   Atom       -1.279263     -0.189217      1.468480
     6   Atom       -0.164113     -0.043378      0.207491
     7   Atom        0.127311     -0.057240     -0.070071
     8   Atom        0.132279      0.047188     -0.179467
     9   Atom        0.442300      0.299005     -0.741305
    10   Atom        1.734403     -0.637765     -1.096638
    11   Atom       -0.260021      0.055440      0.204581
    12   Atom       -0.541265     -1.166983      1.708247
    13   Atom        0.173665     -0.387220      0.213555
    14   Atom        0.130596     -0.060013     -0.070584
    15   Atom        0.127865      0.055812     -0.183677
 --------------------------------------------------------
                        XY            XZ            YZ
 --------------------------------------------------------
     1   Atom       -0.421506     -0.042786     -0.015786
     2   Atom       -0.100527      0.134310      0.640930
     3   Atom        0.596064     -0.054023      0.080546
     4   Atom       -0.038457     -0.036151     -0.704205
     5   Atom        0.755440     -0.180879      0.127638
     6   Atom        0.225390     -0.017938      0.030592
     7   Atom       -0.018697     -0.023594     -0.208169
     8   Atom       -0.001473      0.014861      0.176052
     9   Atom       -0.016711     -0.077884     -0.000704
    10   Atom       -0.420923     -0.197396      0.032543
    11   Atom       -0.181927     -0.022562     -0.027190
    12   Atom       -0.800530     -0.319983      0.390906
    13   Atom        0.085932     -0.035644      0.136363
    14   Atom       -0.022062      0.019941      0.215999
    15   Atom       -0.017969     -0.028424     -0.171922
 --------------------------------------------------------


 ---------------------------------------------------------------------------------
              Nuclear Quadrupole Coupling Constant in Principal Axis System
 ---------------------------------------------------------------------------------

       Atom             a.u.   MegaHertz   Gauss  10(-4) cm-1        Axes


 ---------------------------------------------------------------------------------

 No NMR shielding tensors so no spin-rotation constants.
 Leave Link  601 at Tue Feb 28 15:55:42 2023, MaxMem=   134217728 cpu:         0.9
 FitSet:  NAtFit=    15 NAtPot=    15 NAtFrz=     0 MDM=    19 TotChg=  -2.00000
 Merz-Kollman atomic radii used.
 Atom Element Radius
    1    15    1.80
    2     8    1.40
    3     8    1.40
    4     8    1.40
    5     8    1.40
    6     6    1.50
    7     1    1.20
    8     1    1.20
    9     6    1.50
   10     8    1.40
   11     6    1.50
   12     8    1.40
   13     1    1.20
   14     1    1.20
   15     1    1.20
 Generate VDW surfaces: Layer= 4 Dens= 6 Start= 1.400 Inc= 0.200

 **********************************************************************

            Electrostatic Properties Using The SCF Density

 **********************************************************************

       Atomic Center    1 is at  -2.086366 -0.034102 -0.018098
       Atomic Center    2 is at  -2.272358 -0.800737  1.289495
       Atomic Center    3 is at  -2.876914  1.262195 -0.117230
       Atomic Center    4 is at  -2.139638 -0.916213 -1.261772
       Atomic Center    5 is at  -0.500543  0.540091  0.037379
       Atomic Center    6 is at   0.498598 -0.441224  0.137393
       Atomic Center    7 is at   0.405324 -1.200300 -0.650762
       Atomic Center    8 is at   0.456288 -0.967801  1.101044
       Atomic Center    9 is at   1.861537  0.180179  0.027467
       Atomic Center   10 is at   2.049670  1.377200  0.010964
       Atomic Center   11 is at   3.026062 -0.775288 -0.086494
       Atomic Center   12 is at   4.259995 -0.101446  0.027126
       Atomic Center   13 is at   4.079409  0.827218 -0.174673
       Atomic Center   14 is at   2.946237 -1.536782  0.694008
       Atomic Center   15 is at   2.929350 -1.281536 -1.056039
      ESP Fit Center   16 is at  -0.959310  0.376113  2.198176
      ESP Fit Center   17 is at  -1.167582  0.736850  2.198176
      ESP Fit Center   18 is at  -1.486672  1.004598  2.198176
      ESP Fit Center   19 is at  -1.878095  1.147064  2.198176
      ESP Fit Center   20 is at  -2.294637  1.147064  2.198176
      ESP Fit Center   21 is at  -2.686060  1.004598  2.198176
      ESP Fit Center   22 is at  -0.763882  0.770119  1.970536
      ESP Fit Center   23 is at  -1.029899  1.097098  1.970536
      ESP Fit Center   24 is at  -1.374270  1.340181  1.970536
      ESP Fit Center   25 is at  -1.771453  1.481340  1.970536
      ESP Fit Center   26 is at  -2.191993  1.510106  1.970536
      ESP Fit Center   27 is at  -2.604698  1.424345  1.970536
      ESP Fit Center   28 is at  -2.978961  1.230417  1.970536
      ESP Fit Center   29 is at  -3.287024  0.942706  1.970536
      ESP Fit Center   30 is at  -3.506040  0.582550  1.970536
      ESP Fit Center   31 is at  -1.352024  1.668293  1.688652
      ESP Fit Center   32 is at  -1.764418  1.791756  1.688652
      ESP Fit Center   33 is at  -2.194168  1.816786  1.688652
      ESP Fit Center   34 is at  -3.635381  0.984701  1.688652
      ESP Fit Center   35 is at  -3.828579  0.600012  1.688652
      ESP Fit Center   36 is at  -3.927854  0.181137  1.688652
      ESP Fit Center   37 is at  -1.353670  1.944236  1.360211
      ESP Fit Center   38 is at  -1.766905  2.051230  1.360211
      ESP Fit Center   39 is at  -4.099275  0.597453  1.360211
      ESP Fit Center   40 is at  -4.185202  0.179329  1.360211
      ESP Fit Center   41 is at  -4.185202 -0.247532  1.360211
      ESP Fit Center   42 is at  -1.454821  2.185550  0.994174
      ESP Fit Center   43 is at  -4.354821  0.389946  0.994174
      ESP Fit Center   44 is at  -4.394115 -0.034102  0.994174
      ESP Fit Center   45 is at  -4.354821 -0.458149  0.994174
      ESP Fit Center   46 is at  -4.238278 -0.867757  0.994174
      ESP Fit Center   47 is at  -1.250849  2.261463  0.600525
      ESP Fit Center   48 is at  -4.492142  0.390101  0.600525
      ESP Fit Center   49 is at  -4.529255 -0.034102  0.600525
      ESP Fit Center   50 is at  -4.492142 -0.458305  0.600525
      ESP Fit Center   51 is at  -4.381930 -0.869619  0.600525
      ESP Fit Center   52 is at  -4.201970 -1.255546  0.600525
      ESP Fit Center   53 is at  -3.957727 -1.604360  0.600525
      ESP Fit Center   54 is at  -1.250849 -2.329666  0.600525
      ESP Fit Center   55 is at  -0.864922 -2.149705  0.600525
      ESP Fit Center   56 is at  -4.588712  0.178879  0.190002
      ESP Fit Center   57 is at  -4.588712 -0.247083  0.190002
      ESP Fit Center   58 is at  -4.516724 -0.666918  0.190002
      ESP Fit Center   59 is at  -4.374819 -1.068548  0.190002
      ESP Fit Center   60 is at  -4.167079 -1.440418  0.190002
      ESP Fit Center   61 is at  -3.899481 -1.771832  0.190002
      ESP Fit Center   62 is at  -3.579724 -2.053254  0.190002
      ESP Fit Center   63 is at  -3.217004 -2.276589  0.190002
      ESP Fit Center   64 is at  -2.821759 -2.435412  0.190002
      ESP Fit Center   65 is at  -2.405358 -2.525153  0.190002
      ESP Fit Center   66 is at  -1.979779 -2.543232  0.190002
      ESP Fit Center   67 is at  -1.557268 -2.489127  0.190002
      ESP Fit Center   68 is at  -1.149977 -2.364396  0.190002
      ESP Fit Center   69 is at  -0.769624 -2.172626  0.190002
      ESP Fit Center   70 is at  -4.588712  0.178879 -0.226198
      ESP Fit Center   71 is at  -4.588712 -0.247083 -0.226198
      ESP Fit Center   72 is at  -4.516724 -0.666918 -0.226198
      ESP Fit Center   73 is at  -4.374819 -1.068548 -0.226198
      ESP Fit Center   74 is at  -4.167079 -1.440418 -0.226198
      ESP Fit Center   75 is at  -3.899481 -1.771832 -0.226198
      ESP Fit Center   76 is at  -3.579724 -2.053254 -0.226198
      ESP Fit Center   77 is at  -3.217004 -2.276589 -0.226198
      ESP Fit Center   78 is at  -2.821759 -2.435412 -0.226198
      ESP Fit Center   79 is at  -1.557268 -2.489127 -0.226198
      ESP Fit Center   80 is at  -1.149977 -2.364396 -0.226198
      ESP Fit Center   81 is at  -1.250849  2.261463 -0.636721
      ESP Fit Center   82 is at  -4.529255 -0.034102 -0.636721
      ESP Fit Center   83 is at  -4.492142 -0.458305 -0.636721
      ESP Fit Center   84 is at  -4.381930 -0.869619 -0.636721
      ESP Fit Center   85 is at  -4.201970 -1.255546 -0.636721
      ESP Fit Center   86 is at  -3.957727 -1.604360 -0.636721
      ESP Fit Center   87 is at  -4.394115 -0.034102 -1.030370
      ESP Fit Center   88 is at  -4.354821 -0.458149 -1.030370
      ESP Fit Center   89 is at  -4.238278 -0.867757 -1.030370
      ESP Fit Center   90 is at  -1.353670  1.944236 -1.396407
      ESP Fit Center   91 is at  -4.185202  0.179329 -1.396407
      ESP Fit Center   92 is at  -4.185202 -0.247532 -1.396407
      ESP Fit Center   93 is at  -4.099275 -0.665656 -1.396407
      ESP Fit Center   94 is at  -0.979219  1.453054 -1.724848
      ESP Fit Center   95 is at  -1.352024  1.668293 -1.724848
      ESP Fit Center   96 is at  -1.764418  1.791756 -1.724848
      ESP Fit Center   97 is at  -3.828579  0.600012 -1.724848
      ESP Fit Center   98 is at  -3.927854  0.181137 -1.724848
      ESP Fit Center   99 is at  -3.927854 -0.249341 -1.724848
      ESP Fit Center  100 is at  -0.538550 -0.034102 -2.006732
      ESP Fit Center  101 is at  -0.595947  0.383494 -2.006732
      ESP Fit Center  102 is at  -0.763882  0.770119 -2.006732
      ESP Fit Center  103 is at  -1.029899  1.097098 -2.006732
      ESP Fit Center  104 is at  -1.374270  1.340181 -2.006732
      ESP Fit Center  105 is at  -1.771453  1.481340 -2.006732
      ESP Fit Center  106 is at  -2.191993  1.510106 -2.006732
      ESP Fit Center  107 is at  -3.506040  0.582550 -2.006732
      ESP Fit Center  108 is at  -3.619766  0.176659 -2.006732
      ESP Fit Center  109 is at  -0.959310  0.376113 -2.234372
      ESP Fit Center  110 is at  -1.167582  0.736850 -2.234372
      ESP Fit Center  111 is at  -1.486672  1.004598 -2.234372
      ESP Fit Center  112 is at  -1.878095  1.147064 -2.234372
      ESP Fit Center  113 is at  -2.294637  1.147064 -2.234372
      ESP Fit Center  114 is at  -2.686060  1.004598 -2.234372
      ESP Fit Center  115 is at  -3.005150  0.736850 -2.234372
      ESP Fit Center  116 is at  -1.677245  0.674517 -2.401557
      ESP Fit Center  117 is at  -2.086366  0.784141 -2.401557
      ESP Fit Center  118 is at  -2.495487  0.674517 -2.401557
      ESP Fit Center  119 is at  -2.272358 -0.800737  3.249495
      ESP Fit Center  120 is at  -1.864851 -0.800737  3.206664
      ESP Fit Center  121 is at  -2.068605 -0.447825  3.206664
      ESP Fit Center  122 is at  -2.476111 -0.447825  3.206664
      ESP Fit Center  123 is at  -2.679865 -0.800737  3.206664
      ESP Fit Center  124 is at  -2.476111 -1.153648  3.206664
      ESP Fit Center  125 is at  -2.068605 -1.153648  3.206664
      ESP Fit Center  126 is at  -1.475154 -0.800737  3.080044
      ESP Fit Center  127 is at  -1.581959 -0.402135  3.080044
      ESP Fit Center  128 is at  -1.873756 -0.110338  3.080044
      ESP Fit Center  129 is at  -2.272358 -0.003533  3.080044
      ESP Fit Center  130 is at  -2.670960 -0.110338  3.080044
      ESP Fit Center  131 is at  -2.962757 -0.402135  3.080044
      ESP Fit Center  132 is at  -3.069562 -0.800737  3.080044
      ESP Fit Center  133 is at  -2.962757 -1.199339  3.080044
      ESP Fit Center  134 is at  -2.670960 -1.491135  3.080044
      ESP Fit Center  135 is at  -2.272358 -1.597941  3.080044
      ESP Fit Center  136 is at  -1.873756 -1.491135  3.080044
      ESP Fit Center  137 is at  -1.581959 -1.199339  3.080044
      ESP Fit Center  138 is at  -1.120299 -0.800737  2.875168
      ESP Fit Center  139 is at  -1.198095 -0.384565  2.875168
      ESP Fit Center  140 is at  -1.420976 -0.024600  2.875168
      ESP Fit Center  141 is at  -1.758841  0.230544  2.875168
      ESP Fit Center  142 is at  -2.166059  0.346408  2.875168
      ESP Fit Center  143 is at  -2.587634  0.307343  2.875168
      ESP Fit Center  144 is at  -2.966629  0.118626  2.875168
      ESP Fit Center  145 is at  -3.251858 -0.194256  2.875168
      ESP Fit Center  146 is at  -3.404801 -0.589046  2.875168
      ESP Fit Center  147 is at  -3.404801 -1.012427  2.875168
      ESP Fit Center  148 is at  -3.251858 -1.407218  2.875168
      ESP Fit Center  149 is at  -2.966629 -1.720100  2.875168
      ESP Fit Center  150 is at  -2.587634 -1.908817  2.875168
      ESP Fit Center  151 is at  -2.166059 -1.947881  2.875168
      ESP Fit Center  152 is at  -1.758841 -1.832018  2.875168
      ESP Fit Center  153 is at  -1.420976 -1.576874  2.875168
      ESP Fit Center  154 is at  -1.198095 -1.216908  2.875168
      ESP Fit Center  155 is at  -0.815794 -0.800737  2.600991
      ESP Fit Center  156 is at  -0.874795 -0.390375  2.600991
      ESP Fit Center  157 is at  -1.047019 -0.013259  2.600991
      ESP Fit Center  158 is at  -1.318512  0.300061  2.600991
      ESP Fit Center  159 is at  -1.667280  0.524200  2.600991
      ESP Fit Center  160 is at  -2.065067  0.641001  2.600991
      ESP Fit Center  161 is at  -2.479649  0.641001  2.600991
      ESP Fit Center  162 is at  -2.877437  0.524200  2.600991
      ESP Fit Center  163 is at  -3.226204  0.300061  2.600991
      ESP Fit Center  164 is at  -3.497698 -0.013259  2.600991
      ESP Fit Center  165 is at  -3.669921 -0.390375  2.600991
      ESP Fit Center  166 is at  -3.728922 -0.800737  2.600991
      ESP Fit Center  167 is at  -3.669921 -1.211098  2.600991
      ESP Fit Center  168 is at  -3.497698 -1.588215  2.600991
      ESP Fit Center  169 is at  -3.226204 -1.901534  2.600991
      ESP Fit Center  170 is at  -2.877437 -2.125674  2.600991
      ESP Fit Center  171 is at  -2.479649 -2.242475  2.600991
      ESP Fit Center  172 is at  -2.065067 -2.242475  2.600991
      ESP Fit Center  173 is at  -1.667280 -2.125674  2.600991
      ESP Fit Center  174 is at  -1.318512 -1.901534  2.600991
      ESP Fit Center  175 is at  -1.047019 -1.588215  2.600991
      ESP Fit Center  176 is at  -0.874795 -1.211098  2.600991
      ESP Fit Center  177 is at  -0.628275 -0.378608  2.269495
      ESP Fit Center  178 is at  -0.784906  0.016997  2.269495
      ESP Fit Center  179 is at  -1.035000  0.361220  2.269495
      ESP Fit Center  180 is at  -2.995080  0.735126  2.269495
      ESP Fit Center  181 is at  -3.354328  0.507140  2.269495
      ESP Fit Center  182 is at  -3.645591  0.196976  2.269495
      ESP Fit Center  183 is at  -3.850570 -0.175879  2.269495
      ESP Fit Center  184 is at  -3.956383 -0.587995  2.269495
      ESP Fit Center  185 is at  -3.956383 -1.013479  2.269495
      ESP Fit Center  186 is at  -3.850570 -1.425595  2.269495
      ESP Fit Center  187 is at  -3.645591 -1.798449  2.269495
      ESP Fit Center  188 is at  -3.354328 -2.108613  2.269495
      ESP Fit Center  189 is at  -2.995080 -2.336599  2.269495
      ESP Fit Center  190 is at  -2.590421 -2.468081  2.269495
      ESP Fit Center  191 is at  -2.165777 -2.494797  2.269495
      ESP Fit Center  192 is at  -1.747830 -2.415069  2.269495
      ESP Fit Center  193 is at  -1.362840 -2.233907  2.269495
      ESP Fit Center  194 is at  -1.035000 -1.962694  2.269495
      ESP Fit Center  195 is at  -0.784906 -1.618470  2.269495
      ESP Fit Center  196 is at  -3.729747  0.361492  1.895168
      ESP Fit Center  197 is at  -3.951828  0.008053  1.895168
      ESP Fit Center  198 is at  -4.089693 -0.385942  1.895168
      ESP Fit Center  199 is at  -4.136429 -0.800737  1.895168
      ESP Fit Center  200 is at  -4.089693 -1.215532  1.895168
      ESP Fit Center  201 is at  -3.951828 -1.609527  1.895168
      ESP Fit Center  202 is at  -3.729747 -1.962966  1.895168
      ESP Fit Center  203 is at  -3.434587 -2.258126  1.895168
      ESP Fit Center  204 is at  -3.081148 -2.480206  1.895168
      ESP Fit Center  205 is at  -2.687153 -2.618071  1.895168
      ESP Fit Center  206 is at  -2.272358 -2.664808  1.895168
      ESP Fit Center  207 is at  -1.857563 -2.618071  1.895168
      ESP Fit Center  208 is at  -1.463568 -2.480206  1.895168
      ESP Fit Center  209 is at  -1.110129 -2.258126  1.895168
      ESP Fit Center  210 is at  -0.814969 -1.962966  1.895168
      ESP Fit Center  211 is at  -4.119583 -0.178334  1.494371
      ESP Fit Center  212 is at  -4.210194 -0.589984  1.494371
      ESP Fit Center  213 is at  -4.210194 -1.011489  1.494371
      ESP Fit Center  214 is at  -4.119583 -1.423139  1.494371
      ESP Fit Center  215 is at  -3.942598 -1.805687  1.494371
      ESP Fit Center  216 is at  -3.687514 -2.141244  1.494371
      ESP Fit Center  217 is at  -3.366259 -2.414120  1.494371
      ESP Fit Center  218 is at  -2.993855 -2.611557  1.494371
      ESP Fit Center  219 is at  -2.587714 -2.724321  1.494371
      ESP Fit Center  220 is at  -2.166827 -2.747141  1.494371
      ESP Fit Center  221 is at  -1.750875 -2.678949  1.494371
      ESP Fit Center  222 is at  -1.359307 -2.522934  1.494371
      ESP Fit Center  223 is at  -1.010432 -2.286391  1.494371
      ESP Fit Center  224 is at  -4.210194 -1.011489  1.084619
      ESP Fit Center  225 is at  -4.119583 -1.423139  1.084619
      ESP Fit Center  226 is at  -3.942598 -1.805687  1.084619
      ESP Fit Center  227 is at  -3.687514 -2.141244  1.084619
      ESP Fit Center  228 is at  -3.366259 -2.414120  1.084619
      ESP Fit Center  229 is at  -2.993855 -2.611557  1.084619
      ESP Fit Center  230 is at  -2.587714 -2.724321  1.084619
      ESP Fit Center  231 is at  -2.166827 -2.747141  1.084619
      ESP Fit Center  232 is at  -1.750875 -2.678949  1.084619
      ESP Fit Center  233 is at  -1.359307 -2.522934  1.084619
      ESP Fit Center  234 is at  -1.010432 -2.286391  1.084619
      ESP Fit Center  235 is at  -3.951828 -1.609527  0.683822
      ESP Fit Center  236 is at  -3.729747 -1.962966  0.683822
      ESP Fit Center  237 is at  -3.434587 -2.258126  0.683822
      ESP Fit Center  238 is at  -3.081148 -2.480206  0.683822
      ESP Fit Center  239 is at  -2.687153 -2.618071  0.683822
      ESP Fit Center  240 is at  -2.272358 -2.664808  0.683822
      ESP Fit Center  241 is at  -1.857563 -2.618071  0.683822
      ESP Fit Center  242 is at  -1.463568 -2.480206  0.683822
      ESP Fit Center  243 is at  -1.110129 -2.258126  0.683822
      ESP Fit Center  244 is at  -2.673160  1.615107  1.799939
      ESP Fit Center  245 is at  -3.080667  1.615107  1.799939
      ESP Fit Center  246 is at  -3.284421  1.262195  1.799939
      ESP Fit Center  247 is at  -2.478312  1.952594  1.673319
      ESP Fit Center  248 is at  -2.876914  2.059399  1.673319
      ESP Fit Center  249 is at  -3.275516  1.952594  1.673319
      ESP Fit Center  250 is at  -3.567313  1.660797  1.673319
      ESP Fit Center  251 is at  -3.674118  1.262195  1.673319
      ESP Fit Center  252 is at  -2.025532  2.038333  1.468443
      ESP Fit Center  253 is at  -2.363397  2.293476  1.468443
      ESP Fit Center  254 is at  -2.770615  2.409340  1.468443
      ESP Fit Center  255 is at  -3.192190  2.370275  1.468443
      ESP Fit Center  256 is at  -3.571185  2.181558  1.468443
      ESP Fit Center  257 is at  -3.856414  1.868676  1.468443
      ESP Fit Center  258 is at  -4.009357  1.473886  1.468443
      ESP Fit Center  259 is at  -4.009357  1.050505  1.468443
      ESP Fit Center  260 is at  -1.923067  2.362993  1.194266
      ESP Fit Center  261 is at  -2.271835  2.587132  1.194266
      ESP Fit Center  262 is at  -2.669623  2.703933  1.194266
      ESP Fit Center  263 is at  -3.084205  2.703933  1.194266
      ESP Fit Center  264 is at  -3.481992  2.587132  1.194266
      ESP Fit Center  265 is at  -3.830760  2.362993  1.194266
      ESP Fit Center  266 is at  -4.102253  2.049673  1.194266
      ESP Fit Center  267 is at  -4.274477  1.672557  1.194266
      ESP Fit Center  268 is at  -4.333478  1.262195  1.194266
      ESP Fit Center  269 is at  -4.274477  0.851834  1.194266
      ESP Fit Center  270 is at  -1.639555  2.424152  0.862770
      ESP Fit Center  271 is at  -1.967396  2.695366  0.862770
      ESP Fit Center  272 is at  -2.352385  2.876528  0.862770
      ESP Fit Center  273 is at  -2.770333  2.956256  0.862770
      ESP Fit Center  274 is at  -3.194977  2.929539  0.862770
      ESP Fit Center  275 is at  -3.599636  2.798058  0.862770
      ESP Fit Center  276 is at  -3.958884  2.570072  0.862770
      ESP Fit Center  277 is at  -4.250147  2.259908  0.862770
      ESP Fit Center  278 is at  -4.455126  1.887054  0.862770
      ESP Fit Center  279 is at  -4.560939  1.474937  0.862770
      ESP Fit Center  280 is at  -4.560939  1.049453  0.862770
      ESP Fit Center  281 is at  -4.455126  0.637337  0.862770
      ESP Fit Center  282 is at  -1.419525  2.424424  0.488443
      ESP Fit Center  283 is at  -1.714685  2.719585  0.488443
      ESP Fit Center  284 is at  -2.068124  2.941665  0.488443
      ESP Fit Center  285 is at  -2.462119  3.079530  0.488443
      ESP Fit Center  286 is at  -2.876914  3.126266  0.488443
      ESP Fit Center  287 is at  -3.291709  3.079530  0.488443
      ESP Fit Center  288 is at  -3.685704  2.941665  0.488443
      ESP Fit Center  289 is at  -4.039143  2.719585  0.488443
      ESP Fit Center  290 is at  -4.334303  2.424424  0.488443
      ESP Fit Center  291 is at  -4.556384  2.070985  0.488443
      ESP Fit Center  292 is at  -4.694248  1.676990  0.488443
      ESP Fit Center  293 is at  -4.740985  1.262195  0.488443
      ESP Fit Center  294 is at  -4.694248  0.847401  0.488443
      ESP Fit Center  295 is at  -4.556384  0.453405  0.488443
      ESP Fit Center  296 is at  -1.325119  2.441839  0.087646
      ESP Fit Center  297 is at  -1.614988  2.747850  0.087646
      ESP Fit Center  298 is at  -1.963863  2.984393  0.087646
      ESP Fit Center  299 is at  -2.355431  3.140408  0.087646
      ESP Fit Center  300 is at  -2.771383  3.208599  0.087646
      ESP Fit Center  301 is at  -3.192270  3.185780  0.087646
      ESP Fit Center  302 is at  -3.598410  3.073015  0.087646
      ESP Fit Center  303 is at  -3.970815  2.875579  0.087646
      ESP Fit Center  304 is at  -4.292070  2.602702  0.087646
      ESP Fit Center  305 is at  -4.547154  2.267145  0.087646
      ESP Fit Center  306 is at  -4.724139  1.884598  0.087646
      ESP Fit Center  307 is at  -4.814750  1.472948  0.087646
      ESP Fit Center  308 is at  -4.814750  1.051443  0.087646
      ESP Fit Center  309 is at  -4.724139  0.639793  0.087646
      ESP Fit Center  310 is at  -1.325119  2.441839 -0.322106
      ESP Fit Center  311 is at  -1.614988  2.747850 -0.322106
      ESP Fit Center  312 is at  -1.963863  2.984393 -0.322106
      ESP Fit Center  313 is at  -2.355431  3.140408 -0.322106
      ESP Fit Center  314 is at  -2.771383  3.208599 -0.322106
      ESP Fit Center  315 is at  -3.192270  3.185780 -0.322106
      ESP Fit Center  316 is at  -3.598410  3.073015 -0.322106
      ESP Fit Center  317 is at  -3.970815  2.875579 -0.322106
      ESP Fit Center  318 is at  -4.292070  2.602702 -0.322106
      ESP Fit Center  319 is at  -4.547154  2.267145 -0.322106
      ESP Fit Center  320 is at  -4.724139  1.884598 -0.322106
      ESP Fit Center  321 is at  -4.814750  1.472948 -0.322106
      ESP Fit Center  322 is at  -4.814750  1.051443 -0.322106
      ESP Fit Center  323 is at  -4.724139  0.639793 -0.322106
      ESP Fit Center  324 is at  -1.419525  2.424424 -0.722903
      ESP Fit Center  325 is at  -1.714685  2.719585 -0.722903
      ESP Fit Center  326 is at  -2.068124  2.941665 -0.722903
      ESP Fit Center  327 is at  -2.462119  3.079530 -0.722903
      ESP Fit Center  328 is at  -2.876914  3.126266 -0.722903
      ESP Fit Center  329 is at  -3.291709  3.079530 -0.722903
      ESP Fit Center  330 is at  -3.685704  2.941665 -0.722903
      ESP Fit Center  331 is at  -4.039143  2.719585 -0.722903
      ESP Fit Center  332 is at  -4.334303  2.424424 -0.722903
      ESP Fit Center  333 is at  -4.556384  2.070985 -0.722903
      ESP Fit Center  334 is at  -4.694248  1.676990 -0.722903
      ESP Fit Center  335 is at  -4.740985  1.262195 -0.722903
      ESP Fit Center  336 is at  -4.694248  0.847401 -0.722903
      ESP Fit Center  337 is at  -4.556384  0.453405 -0.722903
      ESP Fit Center  338 is at  -1.639555  2.424152 -1.097230
      ESP Fit Center  339 is at  -1.967396  2.695366 -1.097230
      ESP Fit Center  340 is at  -2.352385  2.876528 -1.097230
      ESP Fit Center  341 is at  -2.770333  2.956256 -1.097230
      ESP Fit Center  342 is at  -3.194977  2.929539 -1.097230
      ESP Fit Center  343 is at  -3.599636  2.798058 -1.097230
      ESP Fit Center  344 is at  -3.958884  2.570072 -1.097230
      ESP Fit Center  345 is at  -4.250147  2.259908 -1.097230
      ESP Fit Center  346 is at  -4.455126  1.887054 -1.097230
      ESP Fit Center  347 is at  -4.560939  1.474937 -1.097230
      ESP Fit Center  348 is at  -4.560939  1.049453 -1.097230
      ESP Fit Center  349 is at  -4.455126  0.637337 -1.097230
      ESP Fit Center  350 is at  -1.651574  2.049673 -1.428726
      ESP Fit Center  351 is at  -1.923067  2.362993 -1.428726
      ESP Fit Center  352 is at  -2.271835  2.587132 -1.428726
      ESP Fit Center  353 is at  -2.669623  2.703933 -1.428726
      ESP Fit Center  354 is at  -3.084205  2.703933 -1.428726
      ESP Fit Center  355 is at  -3.481992  2.587132 -1.428726
      ESP Fit Center  356 is at  -3.830760  2.362993 -1.428726
      ESP Fit Center  357 is at  -4.102253  2.049673 -1.428726
      ESP Fit Center  358 is at  -4.274477  1.672557 -1.428726
      ESP Fit Center  359 is at  -4.333478  1.262195 -1.428726
      ESP Fit Center  360 is at  -4.274477  0.851834 -1.428726
      ESP Fit Center  361 is at  -2.025532  2.038333 -1.702903
      ESP Fit Center  362 is at  -2.363397  2.293476 -1.702903
      ESP Fit Center  363 is at  -2.770615  2.409340 -1.702903
      ESP Fit Center  364 is at  -3.192190  2.370275 -1.702903
      ESP Fit Center  365 is at  -3.571185  2.181558 -1.702903
      ESP Fit Center  366 is at  -3.856414  1.868676 -1.702903
      ESP Fit Center  367 is at  -4.009357  1.473886 -1.702903
      ESP Fit Center  368 is at  -4.009357  1.050505 -1.702903
      ESP Fit Center  369 is at  -3.856414  0.655714 -1.702903
      ESP Fit Center  370 is at  -2.186515  1.660797 -1.907779
      ESP Fit Center  371 is at  -2.478312  1.952594 -1.907779
      ESP Fit Center  372 is at  -2.876914  2.059399 -1.907779
      ESP Fit Center  373 is at  -3.275516  1.952594 -1.907779
      ESP Fit Center  374 is at  -3.567313  1.660797 -1.907779
      ESP Fit Center  375 is at  -3.674118  1.262195 -1.907779
      ESP Fit Center  376 is at  -3.567313  0.863593 -1.907779
      ESP Fit Center  377 is at  -2.673160  1.615107 -2.034399
      ESP Fit Center  378 is at  -3.080667  1.615107 -2.034399
      ESP Fit Center  379 is at  -3.284421  1.262195 -2.034399
      ESP Fit Center  380 is at  -2.876914  1.262195 -2.077230
      ESP Fit Center  381 is at  -2.862360 -2.452075 -0.281772
      ESP Fit Center  382 is at  -2.457701 -2.583557 -0.281772
      ESP Fit Center  383 is at  -2.033057 -2.610273 -0.281772
      ESP Fit Center  384 is at  -1.615110 -2.530545 -0.281772
      ESP Fit Center  385 is at  -3.597027 -2.078442 -0.656099
      ESP Fit Center  386 is at  -3.301867 -2.373602 -0.656099
      ESP Fit Center  387 is at  -2.948428 -2.595682 -0.656099
      ESP Fit Center  388 is at  -2.554433 -2.733547 -0.656099
      ESP Fit Center  389 is at  -2.139638 -2.780284 -0.656099
      ESP Fit Center  390 is at  -1.724843 -2.733547 -0.656099
      ESP Fit Center  391 is at  -1.330848 -2.595682 -0.656099
      ESP Fit Center  392 is at  -0.977409 -2.373602 -0.656099
      ESP Fit Center  393 is at  -3.986863 -1.538615 -1.056896
      ESP Fit Center  394 is at  -3.809878 -1.921163 -1.056896
      ESP Fit Center  395 is at  -3.554794 -2.256720 -1.056896
      ESP Fit Center  396 is at  -3.233539 -2.529596 -1.056896
      ESP Fit Center  397 is at  -2.861135 -2.727033 -1.056896
      ESP Fit Center  398 is at  -2.454994 -2.839797 -1.056896
      ESP Fit Center  399 is at  -2.034107 -2.862617 -1.056896
      ESP Fit Center  400 is at  -1.618155 -2.794425 -1.056896
      ESP Fit Center  401 is at  -1.226587 -2.638410 -1.056896
      ESP Fit Center  402 is at  -0.877712 -2.401867 -1.056896
      ESP Fit Center  403 is at  -4.077474 -0.705460 -1.466648
      ESP Fit Center  404 is at  -4.077474 -1.126965 -1.466648
      ESP Fit Center  405 is at  -3.986863 -1.538615 -1.466648
      ESP Fit Center  406 is at  -3.809878 -1.921163 -1.466648
      ESP Fit Center  407 is at  -3.554794 -2.256720 -1.466648
      ESP Fit Center  408 is at  -3.233539 -2.529596 -1.466648
      ESP Fit Center  409 is at  -2.861135 -2.727033 -1.466648
      ESP Fit Center  410 is at  -2.454994 -2.839797 -1.466648
      ESP Fit Center  411 is at  -2.034107 -2.862617 -1.466648
      ESP Fit Center  412 is at  -1.618155 -2.794425 -1.466648
      ESP Fit Center  413 is at  -1.226587 -2.638410 -1.466648
      ESP Fit Center  414 is at  -0.877712 -2.401867 -1.466648
      ESP Fit Center  415 is at  -3.819108 -0.107423 -1.867445
      ESP Fit Center  416 is at  -3.956973 -0.501418 -1.867445
      ESP Fit Center  417 is at  -4.003709 -0.916213 -1.867445
      ESP Fit Center  418 is at  -3.956973 -1.331008 -1.867445
      ESP Fit Center  419 is at  -3.819108 -1.725003 -1.867445
      ESP Fit Center  420 is at  -3.597027 -2.078442 -1.867445
      ESP Fit Center  421 is at  -3.301867 -2.373602 -1.867445
      ESP Fit Center  422 is at  -2.948428 -2.595682 -1.867445
      ESP Fit Center  423 is at  -2.554433 -2.733547 -1.867445
      ESP Fit Center  424 is at  -2.139638 -2.780284 -1.867445
      ESP Fit Center  425 is at  -1.724843 -2.733547 -1.867445
      ESP Fit Center  426 is at  -1.330848 -2.595682 -1.867445
      ESP Fit Center  427 is at  -0.977409 -2.373602 -1.867445
      ESP Fit Center  428 is at  -0.682249 -2.078442 -1.867445
      ESP Fit Center  429 is at  -0.442228 -0.916213 -2.241772
      ESP Fit Center  430 is at  -0.495555 -0.494084 -2.241772
      ESP Fit Center  431 is at  -0.652186 -0.098479 -2.241772
      ESP Fit Center  432 is at  -0.902280  0.245744 -2.241772
      ESP Fit Center  433 is at  -3.221608  0.391664 -2.241772
      ESP Fit Center  434 is at  -3.512871  0.081500 -2.241772
      ESP Fit Center  435 is at  -3.717850 -0.291355 -2.241772
      ESP Fit Center  436 is at  -3.823663 -0.703471 -2.241772
      ESP Fit Center  437 is at  -3.823663 -1.128955 -2.241772
      ESP Fit Center  438 is at  -3.717850 -1.541071 -2.241772
      ESP Fit Center  439 is at  -3.512871 -1.913925 -2.241772
      ESP Fit Center  440 is at  -3.221608 -2.224089 -2.241772
      ESP Fit Center  441 is at  -2.862360 -2.452075 -2.241772
      ESP Fit Center  442 is at  -2.457701 -2.583557 -2.241772
      ESP Fit Center  443 is at  -2.033057 -2.610273 -2.241772
      ESP Fit Center  444 is at  -1.615110 -2.530545 -2.241772
      ESP Fit Center  445 is at  -1.230120 -2.349383 -2.241772
      ESP Fit Center  446 is at  -0.902280 -2.078170 -2.241772
      ESP Fit Center  447 is at  -0.652186 -1.733946 -2.241772
      ESP Fit Center  448 is at  -0.495555 -1.338341 -2.241772
      ESP Fit Center  449 is at  -0.683074 -0.916213 -2.573268
      ESP Fit Center  450 is at  -0.742075 -0.505851 -2.573268
      ESP Fit Center  451 is at  -0.914299 -0.128735 -2.573268
      ESP Fit Center  452 is at  -1.185792  0.184585 -2.573268
      ESP Fit Center  453 is at  -1.534560  0.408724 -2.573268
      ESP Fit Center  454 is at  -1.932347  0.525525 -2.573268
      ESP Fit Center  455 is at  -2.346929  0.525525 -2.573268
      ESP Fit Center  456 is at  -2.744717  0.408724 -2.573268
      ESP Fit Center  457 is at  -3.093484  0.184585 -2.573268
      ESP Fit Center  458 is at  -3.364978 -0.128735 -2.573268
      ESP Fit Center  459 is at  -3.537201 -0.505851 -2.573268
      ESP Fit Center  460 is at  -3.596202 -0.916213 -2.573268
      ESP Fit Center  461 is at  -3.537201 -1.326574 -2.573268
      ESP Fit Center  462 is at  -3.364978 -1.703691 -2.573268
      ESP Fit Center  463 is at  -3.093484 -2.017010 -2.573268
      ESP Fit Center  464 is at  -2.744717 -2.241150 -2.573268
      ESP Fit Center  465 is at  -2.346929 -2.357951 -2.573268
      ESP Fit Center  466 is at  -1.932347 -2.357951 -2.573268
      ESP Fit Center  467 is at  -1.534560 -2.241150 -2.573268
      ESP Fit Center  468 is at  -1.185792 -2.017010 -2.573268
      ESP Fit Center  469 is at  -0.914299 -1.703691 -2.573268
      ESP Fit Center  470 is at  -0.742075 -1.326574 -2.573268
      ESP Fit Center  471 is at  -0.987579 -0.916213 -2.847445
      ESP Fit Center  472 is at  -1.065375 -0.500041 -2.847445
      ESP Fit Center  473 is at  -1.288256 -0.140076 -2.847445
      ESP Fit Center  474 is at  -1.626121  0.115068 -2.847445
      ESP Fit Center  475 is at  -2.033339  0.230932 -2.847445
      ESP Fit Center  476 is at  -2.454914  0.191867 -2.847445
      ESP Fit Center  477 is at  -2.833909  0.003150 -2.847445
      ESP Fit Center  478 is at  -3.119138 -0.309732 -2.847445
      ESP Fit Center  479 is at  -3.272081 -0.704522 -2.847445
      ESP Fit Center  480 is at  -3.272081 -1.127903 -2.847445
      ESP Fit Center  481 is at  -3.119138 -1.522694 -2.847445
      ESP Fit Center  482 is at  -2.833909 -1.835576 -2.847445
      ESP Fit Center  483 is at  -2.454914 -2.024293 -2.847445
      ESP Fit Center  484 is at  -2.033339 -2.063357 -2.847445
      ESP Fit Center  485 is at  -1.626121 -1.947494 -2.847445
      ESP Fit Center  486 is at  -1.288256 -1.692350 -2.847445
      ESP Fit Center  487 is at  -1.065375 -1.332384 -2.847445
      ESP Fit Center  488 is at  -1.342434 -0.916213 -3.052321
      ESP Fit Center  489 is at  -1.449239 -0.517611 -3.052321
      ESP Fit Center  490 is at  -1.741036 -0.225814 -3.052321
      ESP Fit Center  491 is at  -2.139638 -0.119009 -3.052321
      ESP Fit Center  492 is at  -2.538240 -0.225814 -3.052321
      ESP Fit Center  493 is at  -2.830037 -0.517611 -3.052321
      ESP Fit Center  494 is at  -2.936842 -0.916213 -3.052321
      ESP Fit Center  495 is at  -2.830037 -1.314815 -3.052321
      ESP Fit Center  496 is at  -2.538240 -1.606612 -3.052321
      ESP Fit Center  497 is at  -2.139638 -1.713417 -3.052321
      ESP Fit Center  498 is at  -1.741036 -1.606612 -3.052321
      ESP Fit Center  499 is at  -1.449239 -1.314815 -3.052321
      ESP Fit Center  500 is at  -1.732131 -0.916213 -3.178941
      ESP Fit Center  501 is at  -1.935885 -0.563301 -3.178941
      ESP Fit Center  502 is at  -2.343391 -0.563301 -3.178941
      ESP Fit Center  503 is at  -2.547145 -0.916213 -3.178941
      ESP Fit Center  504 is at  -2.343391 -1.269124 -3.178941
      ESP Fit Center  505 is at  -1.935885 -1.269124 -3.178941
      ESP Fit Center  506 is at  -2.139638 -0.916213 -3.221772
      ESP Fit Center  507 is at  -0.500543  0.540091  1.997379
      ESP Fit Center  508 is at  -0.093036  0.540091  1.954548
      ESP Fit Center  509 is at  -0.296789  0.893002  1.954548
      ESP Fit Center  510 is at  -0.704296  0.893002  1.954548
      ESP Fit Center  511 is at   0.189856  0.938693  1.827928
      ESP Fit Center  512 is at  -0.101941  1.230490  1.827928
      ESP Fit Center  513 is at  -0.500543  1.337295  1.827928
      ESP Fit Center  514 is at  -0.899145  1.230490  1.827928
      ESP Fit Center  515 is at   0.350839  1.316228  1.623052
      ESP Fit Center  516 is at   0.012974  1.571372  1.623052
      ESP Fit Center  517 is at  -0.394244  1.687236  1.623052
      ESP Fit Center  518 is at  -0.815819  1.648171  1.623052
      ESP Fit Center  519 is at   0.453304  1.640889  1.348875
      ESP Fit Center  520 is at   0.104536  1.865028  1.348875
      ESP Fit Center  521 is at  -0.293252  1.981829  1.348875
      ESP Fit Center  522 is at  -0.707834  1.981829  1.348875
      ESP Fit Center  523 is at  -1.105621  1.865028  1.348875
      ESP Fit Center  524 is at   0.408975  1.973262  1.017379
      ESP Fit Center  525 is at   0.023986  2.154424  1.017379
      ESP Fit Center  526 is at  -0.393962  2.234151  1.017379
      ESP Fit Center  527 is at  -0.818606  2.207435  1.017379
      ESP Fit Center  528 is at   0.308247  2.219561  0.643052
      ESP Fit Center  529 is at  -0.085748  2.357426  0.643052
      ESP Fit Center  530 is at  -0.500543  2.404162  0.643052
      ESP Fit Center  531 is at  -0.915338  2.357426  0.643052
      ESP Fit Center  532 is at   0.020940  2.418303  0.242255
      ESP Fit Center  533 is at  -0.395012  2.486495  0.242255
      ESP Fit Center  534 is at  -0.815899  2.463675  0.242255
      ESP Fit Center  535 is at  -1.222039  2.350911  0.242255
      ESP Fit Center  536 is at   0.020940  2.418303 -0.167497
      ESP Fit Center  537 is at  -0.395012  2.486495 -0.167497
      ESP Fit Center  538 is at  -0.815899  2.463675 -0.167497
      ESP Fit Center  539 is at  -1.222039  2.350911 -0.167497
      ESP Fit Center  540 is at   0.308247  2.219561 -0.568294
      ESP Fit Center  541 is at  -0.085748  2.357426 -0.568294
      ESP Fit Center  542 is at  -0.500543  2.404162 -0.568294
      ESP Fit Center  543 is at  -0.915338  2.357426 -0.568294
      ESP Fit Center  544 is at   0.408975  1.973262 -0.942621
      ESP Fit Center  545 is at   0.023986  2.154424 -0.942621
      ESP Fit Center  546 is at  -0.393962  2.234151 -0.942621
      ESP Fit Center  547 is at  -0.818606  2.207435 -0.942621
      ESP Fit Center  548 is at   0.453304  1.640889 -1.274117
      ESP Fit Center  549 is at   0.104536  1.865028 -1.274117
      ESP Fit Center  550 is at  -0.293252  1.981829 -1.274117
      ESP Fit Center  551 is at  -0.707834  1.981829 -1.274117
      ESP Fit Center  552 is at   0.573720  0.956263 -1.548294
      ESP Fit Center  553 is at   0.350839  1.316228 -1.548294
      ESP Fit Center  554 is at   0.012974  1.571372 -1.548294
      ESP Fit Center  555 is at  -0.394244  1.687236 -1.548294
      ESP Fit Center  556 is at  -0.815819  1.648171 -1.548294
      ESP Fit Center  557 is at   0.296661  0.540091 -1.753170
      ESP Fit Center  558 is at   0.189856  0.938693 -1.753170
      ESP Fit Center  559 is at  -0.101941  1.230490 -1.753170
      ESP Fit Center  560 is at  -0.500543  1.337295 -1.753170
      ESP Fit Center  561 is at  -0.093036  0.540091 -1.879790
      ESP Fit Center  562 is at  -0.296789  0.893002 -1.879790
      ESP Fit Center  563 is at  -0.296789  0.187180 -1.879790
      ESP Fit Center  564 is at  -0.500543  0.540091 -1.922621
      ESP Fit Center  565 is at   0.606247  0.720497  1.883479
      ESP Fit Center  566 is at   0.179316  0.680936  1.883479
      ESP Fit Center  567 is at   0.709925  1.028586  1.622317
      ESP Fit Center  568 is at   1.213925 -2.372664  0.547083
      ESP Fit Center  569 is at   0.606247  0.720497 -1.608693
      ESP Fit Center  570 is at   0.498598  0.362411 -1.802754
      ESP Fit Center  571 is at   0.703443 -0.086422 -1.922256
      ESP Fit Center  572 is at   0.293753 -0.086422 -1.922256
      ESP Fit Center  573 is at  -0.322137 -2.460300  0.189238
      ESP Fit Center  574 is at   0.081573 -2.618745  0.189238
      ESP Fit Center  575 is at   0.514050 -2.651154  0.189238
      ESP Fit Center  576 is at   0.936867 -2.554649  0.189238
      ESP Fit Center  577 is at  -0.742137 -2.347761 -0.215946
      ESP Fit Center  578 is at  -0.406054 -2.605647 -0.215946
      ESP Fit Center  579 is at  -0.014676 -2.767761 -0.215946
      ESP Fit Center  580 is at   0.405324 -2.823055 -0.215946
      ESP Fit Center  581 is at   0.825324 -2.767761 -0.215946
      ESP Fit Center  582 is at   1.216702 -2.605647 -0.215946
      ESP Fit Center  583 is at   1.552785 -2.347761 -0.215946
      ESP Fit Center  584 is at  -0.665548 -2.494762 -0.650762
      ESP Fit Center  585 is at  -0.309985 -2.720409 -0.650762
      ESP Fit Center  586 is at   0.090523 -2.850543 -0.650762
      ESP Fit Center  587 is at   0.510812 -2.876985 -0.650762
      ESP Fit Center  588 is at   0.924473 -2.798075 -0.650762
      ESP Fit Center  589 is at   1.305513 -2.618771 -0.650762
      ESP Fit Center  590 is at   1.629991 -2.350339 -0.650762
      ESP Fit Center  591 is at  -0.742137 -2.347761 -1.085578
      ESP Fit Center  592 is at  -0.406054 -2.605647 -1.085578
      ESP Fit Center  593 is at  -0.014676 -2.767761 -1.085578
      ESP Fit Center  594 is at   0.405324 -2.823055 -1.085578
      ESP Fit Center  595 is at   0.825324 -2.767761 -1.085578
      ESP Fit Center  596 is at   1.216702 -2.605647 -1.085578
      ESP Fit Center  597 is at   1.552785 -2.347761 -1.085578
      ESP Fit Center  598 is at  -0.661210 -2.189899 -1.490762
      ESP Fit Center  599 is at  -0.322137 -2.460300 -1.490762
      ESP Fit Center  600 is at   0.081573 -2.618745 -1.490762
      ESP Fit Center  601 is at   0.514050 -2.651154 -1.490762
      ESP Fit Center  602 is at   0.936867 -2.554649 -1.490762
      ESP Fit Center  603 is at   1.312453 -2.337804 -1.490762
      ESP Fit Center  604 is at   1.513044 -0.771167 -1.838701
      ESP Fit Center  605 is at  -0.310569 -0.252304 -1.838701
      ESP Fit Center  606 is at  -0.310569 -2.148296 -1.838701
      ESP Fit Center  607 is at   0.080229 -2.342890 -1.838701
      ESP Fit Center  608 is at   0.514933 -2.383172 -1.838701
      ESP Fit Center  609 is at   0.934834 -2.263700 -1.838701
      ESP Fit Center  610 is at   1.283222 -2.000610 -1.838701
      ESP Fit Center  611 is at   1.245324 -1.200300 -2.105685
      ESP Fit Center  612 is at   1.132785 -0.780300 -2.105685
      ESP Fit Center  613 is at   0.825324 -0.472839 -2.105685
      ESP Fit Center  614 is at   0.405324 -0.360300 -2.105685
      ESP Fit Center  615 is at  -0.014676 -0.472839 -2.105685
      ESP Fit Center  616 is at  -0.322137 -0.780300 -2.105685
      ESP Fit Center  617 is at  -0.322137 -1.620300 -2.105685
      ESP Fit Center  618 is at  -0.014676 -1.927761 -2.105685
      ESP Fit Center  619 is at   0.405324 -2.040300 -2.105685
      ESP Fit Center  620 is at   0.825324 -1.927761 -2.105685
      ESP Fit Center  621 is at   1.132785 -1.620300 -2.105685
      ESP Fit Center  622 is at   0.840140 -1.200300 -2.273517
      ESP Fit Center  623 is at   0.622732 -0.823738 -2.273517
      ESP Fit Center  624 is at   0.187916 -0.823738 -2.273517
      ESP Fit Center  625 is at  -0.029492 -1.200300 -2.273517
      ESP Fit Center  626 is at   0.187916 -1.576862 -2.273517
      ESP Fit Center  627 is at   0.622732 -1.576862 -2.273517
      ESP Fit Center  628 is at   0.405324 -1.200300 -2.330762
      ESP Fit Center  629 is at   0.456288 -0.967801  2.781044
      ESP Fit Center  630 is at   0.891104 -0.967801  2.723799
      ESP Fit Center  631 is at   0.673696 -0.591239  2.723799
      ESP Fit Center  632 is at   0.238880 -0.591239  2.723799
      ESP Fit Center  633 is at   0.021472 -0.967801  2.723799
      ESP Fit Center  634 is at   0.238880 -1.344363  2.723799
      ESP Fit Center  635 is at   0.673696 -1.344363  2.723799
      ESP Fit Center  636 is at   1.296288 -0.967801  2.555967
      ESP Fit Center  637 is at   1.183749 -0.547801  2.555967
      ESP Fit Center  638 is at   0.876288 -0.240340  2.555967
      ESP Fit Center  639 is at   0.456288 -0.127801  2.555967
      ESP Fit Center  640 is at   0.036288 -0.240340  2.555967
      ESP Fit Center  641 is at  -0.271173 -0.547801  2.555967
      ESP Fit Center  642 is at  -0.383712 -0.967801  2.555967
      ESP Fit Center  643 is at  -0.271173 -1.387801  2.555967
      ESP Fit Center  644 is at   0.036288 -1.695262  2.555967
      ESP Fit Center  645 is at   0.456288 -1.807801  2.555967
      ESP Fit Center  646 is at   0.876288 -1.695262  2.555967
      ESP Fit Center  647 is at   1.183749 -1.387801  2.555967
      ESP Fit Center  648 is at   1.644227 -0.967801  2.288983
      ESP Fit Center  649 is at   1.564008 -0.538668  2.288983
      ESP Fit Center  650 is at   1.334186 -0.167491  2.288983
      ESP Fit Center  651 is at   0.985798  0.095599  2.288983
      ESP Fit Center  652 is at   0.565897  0.215071  2.288983
      ESP Fit Center  653 is at   0.131193  0.174790  2.288983
      ESP Fit Center  654 is at  -0.259605 -0.019805  2.288983
      ESP Fit Center  655 is at  -0.553718 -0.342431  2.288983
      ESP Fit Center  656 is at  -0.553718 -1.593170  2.288983
      ESP Fit Center  657 is at  -0.259605 -1.915797  2.288983
      ESP Fit Center  658 is at   0.131193 -2.110391  2.288983
      ESP Fit Center  659 is at   0.565897 -2.150673  2.288983
      ESP Fit Center  660 is at   0.985798 -2.031201  2.288983
      ESP Fit Center  661 is at   1.334186 -1.768111  2.288983
      ESP Fit Center  662 is at   1.564008 -1.396934  2.288983
      ESP Fit Center  663 is at   1.911211 -0.967801  1.941044
      ESP Fit Center  664 is at  -0.610246 -1.957400  1.941044
      ESP Fit Center  665 is at  -0.271173 -2.227801  1.941044
      ESP Fit Center  666 is at   0.132537 -2.386246  1.941044
      ESP Fit Center  667 is at   0.565014 -2.418655  1.941044
      ESP Fit Center  668 is at   0.987831 -2.322150  1.941044
      ESP Fit Center  669 is at   1.363417 -2.105305  1.941044
      ESP Fit Center  670 is at   1.658402 -1.787388  1.941044
      ESP Fit Center  671 is at  -0.691173 -2.115262  1.535860
      ESP Fit Center  672 is at  -0.355090 -2.373148  1.535860
      ESP Fit Center  673 is at   0.036288 -2.535262  1.535860
      ESP Fit Center  674 is at   0.456288 -2.590556  1.535860
      ESP Fit Center  675 is at   0.876288 -2.535262  1.535860
      ESP Fit Center  676 is at   1.267666 -2.373148  1.535860
      ESP Fit Center  677 is at   1.603749 -2.115262  1.535860
      ESP Fit Center  678 is at  -0.614584 -2.262263  1.101044
      ESP Fit Center  679 is at  -0.259021 -2.487910  1.101044
      ESP Fit Center  680 is at   0.141487 -2.618044  1.101044
      ESP Fit Center  681 is at   0.561776 -2.644486  1.101044
      ESP Fit Center  682 is at   0.975437 -2.565576  1.101044
      ESP Fit Center  683 is at   1.356477 -2.386272  1.101044
      ESP Fit Center  684 is at  -0.691173 -2.115262  0.666228
      ESP Fit Center  685 is at  -0.355090 -2.373148  0.666228
      ESP Fit Center  686 is at   0.036288 -2.535262  0.666228
      ESP Fit Center  687 is at   0.456288 -2.590556  0.666228
      ESP Fit Center  688 is at   0.876288 -2.535262  0.666228
      ESP Fit Center  689 is at   1.267666 -2.373148  0.666228
      ESP Fit Center  690 is at   1.861537  0.180179  2.127467
      ESP Fit Center  691 is at   2.271227  0.180179  2.087116
      ESP Fit Center  692 is at   2.066382  0.534981  2.087116
      ESP Fit Center  693 is at   1.656692  0.534981  2.087116
      ESP Fit Center  694 is at   1.451847  0.180179  2.087116
      ESP Fit Center  695 is at   1.656692 -0.174623  2.087116
      ESP Fit Center  696 is at   2.066382 -0.174623  2.087116
      ESP Fit Center  697 is at   2.665172  0.180179  1.967614
      ESP Fit Center  698 is at   2.557506  0.581997  1.967614
      ESP Fit Center  699 is at   2.263355  0.876147  1.967614
      ESP Fit Center  700 is at   1.861537  0.983814  1.967614
      ESP Fit Center  701 is at   1.459719  0.876147  1.967614
      ESP Fit Center  702 is at   1.165569  0.581997  1.967614
      ESP Fit Center  703 is at   1.861537 -0.623456  1.967614
      ESP Fit Center  704 is at   2.263355 -0.515790  1.967614
      ESP Fit Center  705 is at   2.557506 -0.221639  1.967614
      ESP Fit Center  706 is at   2.949450  0.601639  1.773553
      ESP Fit Center  707 is at   1.158445  1.111224  1.773553
      ESP Fit Center  708 is at   2.949450  0.601639 -1.718619
      ESP Fit Center  709 is at   1.158445  1.111224 -1.718619
      ESP Fit Center  710 is at   0.869591  0.794366 -1.718619
      ESP Fit Center  711 is at   2.557506  0.581997 -1.912680
      ESP Fit Center  712 is at   2.263355  0.876147 -1.912680
      ESP Fit Center  713 is at   1.861537  0.983814 -1.912680
      ESP Fit Center  714 is at   1.459719  0.876147 -1.912680
      ESP Fit Center  715 is at   1.165569  0.581997 -1.912680
      ESP Fit Center  716 is at   1.057902  0.180179 -1.912680
      ESP Fit Center  717 is at   1.165569 -0.221639 -1.912680
      ESP Fit Center  718 is at   1.459719 -0.515790 -1.912680
      ESP Fit Center  719 is at   2.271227  0.180179 -2.032182
      ESP Fit Center  720 is at   2.066382  0.534981 -2.032182
      ESP Fit Center  721 is at   1.656692  0.534981 -2.032182
      ESP Fit Center  722 is at   1.451847  0.180179 -2.032182
      ESP Fit Center  723 is at   1.656692 -0.174623 -2.032182
      ESP Fit Center  724 is at   2.066382 -0.174623 -2.032182
      ESP Fit Center  725 is at   1.861537  0.180179 -2.072533
      ESP Fit Center  726 is at   2.049670  1.377200  1.970964
      ESP Fit Center  727 is at   2.457177  1.377200  1.928133
      ESP Fit Center  728 is at   2.253424  1.730111  1.928133
      ESP Fit Center  729 is at   1.845917  1.730111  1.928133
      ESP Fit Center  730 is at   1.642163  1.377200  1.928133
      ESP Fit Center  731 is at   2.253424  1.024289  1.928133
      ESP Fit Center  732 is at   2.846874  1.377200  1.801513
      ESP Fit Center  733 is at   2.740069  1.775802  1.801513
      ESP Fit Center  734 is at   2.448272  2.067599  1.801513
      ESP Fit Center  735 is at   2.049670  2.174404  1.801513
      ESP Fit Center  736 is at   1.651068  2.067599  1.801513
      ESP Fit Center  737 is at   1.359271  1.775802  1.801513
      ESP Fit Center  738 is at   1.252466  1.377200  1.801513
      ESP Fit Center  739 is at   2.740069  0.978598  1.801513
      ESP Fit Center  740 is at   3.201729  1.377200  1.596637
      ESP Fit Center  741 is at   3.123933  1.793372  1.596637
      ESP Fit Center  742 is at   2.901052  2.153337  1.596637
      ESP Fit Center  743 is at   2.563187  2.408481  1.596637
      ESP Fit Center  744 is at   2.155969  2.524345  1.596637
      ESP Fit Center  745 is at   1.734394  2.485280  1.596637
      ESP Fit Center  746 is at   1.355399  2.296563  1.596637
[...]
 5045 Fit      -0.171887
 5046 Fit      -0.220091
 5047 Fit      -0.230323
 5048 Fit      -0.236677
 5049 Fit      -0.171414
 5050 Fit      -0.182406
 5051 Fit      -0.195201
 5052 Fit      -0.207141
 5053 Fit      -0.215067
 5054 Fit      -0.215175
 5055 Fit      -0.205530
 5056 Fit      -0.189540
 5057 Fit      -0.172870
 5058 Fit      -0.182739
 5059 Fit      -0.195132
 5060 Fit      -0.197946
 5061 Fit      -0.186312
 5062 Fit      -0.184031
 5063 Fit      -0.198937
 5064 Fit      -0.190175
 5065 Fit      -0.196364
 5066 Fit      -0.206331
 5067 Fit      -0.210312
 5068 Fit      -0.183659
 5069 Fit      -0.187230
 5070 Fit      -0.193711
 5071 Fit      -0.202900
 5072 Fit      -0.213455
 5073 Fit      -0.222334
 5074 Fit      -0.179104
 5075 Fit      -0.181101
 5076 Fit      -0.185009
 5077 Fit      -0.191058
 5078 Fit      -0.199153
 5079 Fit      -0.209062
 5080 Fit      -0.220237
 5081 Fit      -0.231404
 5082 Fit      -0.240145
 5083 Fit      -0.176230
 5084 Fit      -0.176605
 5085 Fit      -0.178772
 5086 Fit      -0.182787
 5087 Fit      -0.188467
 5088 Fit      -0.195709
 5089 Fit      -0.204508
 5090 Fit      -0.214857
 5091 Fit      -0.226601
 5092 Fit      -0.239230
 5093 Fit      -0.251572
 5094 Fit      -0.173824
 5095 Fit      -0.176751
 5096 Fit      -0.181246
 5097 Fit      -0.187045
 5098 Fit      -0.194104
 5099 Fit      -0.202509
 5100 Fit      -0.212397
 5101 Fit      -0.223889
 5102 Fit      -0.237005
 5103 Fit      -0.251524
 5104 Fit      -0.266734
 5105 Fit      -0.171442
 5106 Fit      -0.175521
 5107 Fit      -0.180716
 5108 Fit      -0.186905
 5109 Fit      -0.194157
 5110 Fit      -0.202639
 5111 Fit      -0.212567
 5112 Fit      -0.224177
 5113 Fit      -0.237696
 5114 Fit      -0.253280
 5115 Fit      -0.270877
 5116 Fit      -0.169907
 5117 Fit      -0.174912
 5118 Fit      -0.180585
 5119 Fit      -0.186987
 5120 Fit      -0.194281
 5121 Fit      -0.202683
 5122 Fit      -0.212444
 5123 Fit      -0.223847
 5124 Fit      -0.237219
 5125 Fit      -0.252910
 5126 Fit      -0.271260
 5127 Fit      -0.164547
 5128 Fit      -0.170010
 5129 Fit      -0.175746
 5130 Fit      -0.181887
 5131 Fit      -0.188635
 5132 Fit      -0.196222
 5133 Fit      -0.204903
 5134 Fit      -0.214958
 5135 Fit      -0.226716
 5136 Fit      -0.240570
 5137 Fit      -0.256997
 5138 Fit      -0.276564
 5139 Fit      -0.166640
 5140 Fit      -0.172957
 5141 Fit      -0.179390
 5142 Fit      -0.186247
 5143 Fit      -0.193823
 5144 Fit      -0.202411
 5145 Fit      -0.212322
 5146 Fit      -0.223915
 5147 Fit      -0.237628
 5148 Fit      -0.254020
 5149 Fit      -0.273813
 5150 Fit      -0.163670
 5151 Fit      -0.170520
 5152 Fit      -0.177191
 5153 Fit      -0.184092
 5154 Fit      -0.191566
 5155 Fit      -0.199931
 5156 Fit      -0.209508
 5157 Fit      -0.220654
 5158 Fit      -0.233797
 5159 Fit      -0.249491
 5160 Fit      -0.268465
 5161 Fit      -0.162291
 5162 Fit      -0.169574
 5163 Fit      -0.176515
 5164 Fit      -0.183593
 5165 Fit      -0.191189
 5166 Fit      -0.199644
 5167 Fit      -0.209292
 5168 Fit      -0.220499
 5169 Fit      -0.233705
 5170 Fit      -0.249468
 5171 Fit      -0.268528
 5172 Fit      -0.162855
 5173 Fit      -0.170335
 5174 Fit      -0.177504
 5175 Fit      -0.184849
 5176 Fit      -0.192765
 5177 Fit      -0.201606
 5178 Fit      -0.211723
 5179 Fit      -0.223501
 5180 Fit      -0.237403
 5181 Fit      -0.254012
 5182 Fit      -0.274072
 5183 Fit      -0.164434
 5184 Fit      -0.171801
 5185 Fit      -0.179007
 5186 Fit      -0.186479
 5187 Fit      -0.194583
 5188 Fit      -0.203656
 5189 Fit      -0.214038
 5190 Fit      -0.226098
 5191 Fit      -0.240264
 5192 Fit      -0.257049
 5193 Fit      -0.277041
 5194 Fit      -0.161135
 5195 Fit      -0.168758
 5196 Fit      -0.176147
 5197 Fit      -0.183706
 5198 Fit      -0.191813
 5199 Fit      -0.200818
 5200 Fit      -0.211063
 5201 Fit      -0.222899
 5202 Fit      -0.236702
 5203 Fit      -0.252866
 5204 Fit      -0.271755
 5205 Fit      -0.167326
 5206 Fit      -0.174836
 5207 Fit      -0.182601
 5208 Fit      -0.190956
 5209 Fit      -0.200251
 5210 Fit      -0.210825
 5211 Fit      -0.223005
 5212 Fit      -0.237085
 5213 Fit      -0.253267
 5214 Fit      -0.271513
 5215 Fit      -0.166769
 5216 Fit      -0.174007
 5217 Fit      -0.181750
 5218 Fit      -0.190191
 5219 Fit      -0.199615
 5220 Fit      -0.210309
 5221 Fit      -0.222503
 5222 Fit      -0.236298
 5223 Fit      -0.251517
 5224 Fit      -0.267456
 5225 Fit      -0.167942
 5226 Fit      -0.174779
 5227 Fit      -0.182602
 5228 Fit      -0.191416
 5229 Fit      -0.201393
 5230 Fit      -0.212685
 5231 Fit      -0.225260
 5232 Fit      -0.238690
 5233 Fit      -0.251843
 5234 Fit      -0.262596
 5235 Fit      -0.166248
 5236 Fit      -0.170463
 5237 Fit      -0.176925
 5238 Fit      -0.185171
 5239 Fit      -0.194953
 5240 Fit      -0.206155
 5241 Fit      -0.218390
 5242 Fit      -0.230510
 5243 Fit      -0.240152
 5244 Fit      -0.174274
 5245 Fit      -0.179503
 5246 Fit      -0.188074
 5247 Fit      -0.199040
 5248 Fit      -0.210976
 5249 Fit      -0.220942
 5250 Fit      -0.224146
 5251 Fit      -0.183568
 5252 Fit      -0.191251
 5253 Fit      -0.203050
 5254 Fit      -0.207967
 5255 Fit      -0.194630
 5256 Fit      -0.159265
 5257 Fit      -0.162529
 5258 Fit      -0.153364
 5259 Fit      -0.158391
 5260 Fit      -0.162736
 5261 Fit      -0.166716
 5262 Fit      -0.136100
 5263 Fit      -0.129542
 5264 Fit      -0.132422
 5265 Fit      -0.136904
 5266 Fit      -0.128073
 5267 Fit      -0.129339
 5268 Fit      -0.132092
 5269 Fit      -0.136500
 5270 Fit      -0.161283
 5271 Fit      -0.151578
 5272 Fit      -0.143719
 5273 Fit      -0.137598
 5274 Fit      -0.133082
 5275 Fit      -0.130052
 5276 Fit      -0.128417
 5277 Fit      -0.128139
 5278 Fit      -0.129241
 5279 Fit      -0.131818
 5280 Fit      -0.136028
 5281 Fit      -0.160882
 5282 Fit      -0.151511
 5283 Fit      -0.143857
 5284 Fit      -0.137853
 5285 Fit      -0.133385
 5286 Fit      -0.130346
 5287 Fit      -0.128653
 5288 Fit      -0.128271
 5289 Fit      -0.129219
 5290 Fit      -0.131578
 5291 Fit      -0.135477
 5292 Fit      -0.128473
 5293 Fit      -0.128859
 5294 Fit      -0.130645
 5295 Fit      -0.133921
 5296 Fit      -0.132196
 5297 Fit      -0.136189
 5298 Fit      -0.152047
 5299 Fit      -0.158731
 5300 Fit      -0.146593
 5301 Fit      -0.150681
 5302 Fit      -0.156702
 5303 Fit      -0.163908
 5304 Fit      -0.157629
 5305 Fit      -0.154859
 5306 Fit      -0.157938
 5307 Fit      -0.161515
 5308 Fit      -0.160579
 5309 Fit      -0.156350
 5310 Fit      -0.154169
 5311 Fit      -0.152285
 5312 Fit      -0.154113
 5313 Fit      -0.157342
 5314 Fit      -0.161895
 5315 Fit      -0.166038
 5316 Fit      -0.166895
 5317 Fit      -0.151659
 5318 Fit      -0.151033
 5319 Fit      -0.151345
 5320 Fit      -0.149897
 5321 Fit      -0.150936
 5322 Fit      -0.152778
 5323 Fit      -0.155906
 5324 Fit      -0.160579
 5325 Fit      -0.166341
 5326 Fit      -0.171561
 5327 Fit      -0.147966
 5328 Fit      -0.148195
 5329 Fit      -0.148674
 5330 Fit      -0.149228
 5331 Fit      -0.147687
 5332 Fit      -0.148176
 5333 Fit      -0.149084
 5334 Fit      -0.150789
 5335 Fit      -0.153719
 5336 Fit      -0.158245
 5337 Fit      -0.164458
 5338 Fit      -0.171792
 5339 Fit      -0.145669
 5340 Fit      -0.146362
 5341 Fit      -0.146917
 5342 Fit      -0.147330
 5343 Fit      -0.145657
 5344 Fit      -0.145744
 5345 Fit      -0.146050
 5346 Fit      -0.146860
 5347 Fit      -0.148534
 5348 Fit      -0.151500
 5349 Fit      -0.156210
 5350 Fit      -0.163006
 5351 Fit      -0.171839
 5352 Fit      -0.143315
 5353 Fit      -0.144235
 5354 Fit      -0.144919
 5355 Fit      -0.145357
 5356 Fit      -0.145576
 5357 Fit      -0.143817
 5358 Fit      -0.143578
 5359 Fit      -0.143435
 5360 Fit      -0.143610
 5361 Fit      -0.144399
 5362 Fit      -0.146181
 5363 Fit      -0.149437
 5364 Fit      -0.141043
 5365 Fit      -0.142210
 5366 Fit      -0.143084
 5367 Fit      -0.143666
 5368 Fit      -0.143955
 5369 Fit      -0.143982
 5370 Fit      -0.142184
 5371 Fit      -0.141683
 5372 Fit      -0.141186
 5373 Fit      -0.140863
 5374 Fit      -0.140935
 5375 Fit      -0.141697
 5376 Fit      -0.143547
 5377 Fit      -0.139086
 5378 Fit      -0.140415
 5379 Fit      -0.141441
 5380 Fit      -0.142173
 5381 Fit      -0.142597
 5382 Fit      -0.142717
 5383 Fit      -0.142560
 5384 Fit      -0.140778
 5385 Fit      -0.140063
 5386 Fit      -0.139291
 5387 Fit      -0.138597
 5388 Fit      -0.138160
 5389 Fit      -0.138214
 5390 Fit      -0.139088
 5391 Fit      -0.138698
 5392 Fit      -0.139875
 5393 Fit      -0.140777
 5394 Fit      -0.141381
 5395 Fit      -0.141671
 5396 Fit      -0.141646
 5397 Fit      -0.141331
 5398 Fit      -0.139616
 5399 Fit      -0.138702
 5400 Fit      -0.137686
 5401 Fit      -0.136692
 5402 Fit      -0.135882
 5403 Fit      -0.135475
 5404 Fit      -0.138142
 5405 Fit      -0.139277
 5406 Fit      -0.140138
 5407 Fit      -0.140688
 5408 Fit      -0.140901
 5409 Fit      -0.140775
 5410 Fit      -0.140331
 5411 Fit      -0.138710
 5412 Fit      -0.137653
 5413 Fit      -0.136461
 5414 Fit      -0.135244
 5415 Fit      -0.134145
 5416 Fit      -0.133360
 5417 Fit      -0.137861
 5418 Fit      -0.138915
 5419 Fit      -0.139704
 5420 Fit      -0.140178
 5421 Fit      -0.140309
 5422 Fit      -0.140091
 5423 Fit      -0.139544
 5424 Fit      -0.138061
 5425 Fit      -0.136897
 5426 Fit      -0.135573
 5427 Fit      -0.134195
 5428 Fit      -0.132900
 5429 Fit      -0.131876
 5430 Fit      -0.137614
 5431 Fit      -0.138622
 5432 Fit      -0.139371
 5433 Fit      -0.139803
 5434 Fit      -0.139884
 5435 Fit      -0.139606
 5436 Fit      -0.138985
 5437 Fit      -0.137667
 5438 Fit      -0.136429
 5439 Fit      -0.135018
 5440 Fit      -0.133543
 5441 Fit      -0.132144
 5442 Fit      -0.137383
 5443 Fit      -0.138380
 5444 Fit      -0.139124
 5445 Fit      -0.139550
 5446 Fit      -0.139616
 5447 Fit      -0.139311
 5448 Fit      -0.138648
 5449 Fit      -0.137514
 5450 Fit      -0.136274
 5451 Fit      -0.134865
 5452 Fit      -0.133398
 5453 Fit      -0.132023
 5454 Fit      -0.137321
 5455 Fit      -0.138290
 5456 Fit      -0.139012
 5457 Fit      -0.139421
 5458 Fit      -0.139478
 5459 Fit      -0.139166
 5460 Fit      -0.138499
 5461 Fit      -0.137589
 5462 Fit      -0.136356
 5463 Fit      -0.134966
 5464 Fit      -0.133559
 5465 Fit      -0.132330
 5466 Fit      -0.138055
 5467 Fit      -0.138857
 5468 Fit      -0.139343
 5469 Fit      -0.139465
 5470 Fit      -0.139200
 5471 Fit      -0.138561
 5472 Fit      -0.137878
 5473 Fit      -0.136698
 5474 Fit      -0.135400
 5475 Fit      -0.134181
 5476 Fit      -0.133325
 5477 Fit      -0.138674
 5478 Fit      -0.139297
 5479 Fit      -0.139538
 5480 Fit      -0.139369
 5481 Fit      -0.138800
 5482 Fit      -0.138377
 5483 Fit      -0.137347
 5484 Fit      -0.136284
 5485 Fit      -0.135468
 5486 Fit      -0.138541
 5487 Fit      -0.139310
 5488 Fit      -0.139681
 5489 Fit      -0.139635
 5490 Fit      -0.139181
 5491 Fit      -0.139093
 5492 Fit      -0.138294
 5493 Fit      -0.137630
 5494 Fit      -0.137539
 5495 Fit      -0.139331
 5496 Fit      -0.139892
 5497 Fit      -0.140021
 5498 Fit      -0.139728
 5499 Fit      -0.140051
 5500 Fit      -0.139617
 5501 Fit      -0.139697
 5502 Fit      -0.141031
 5503 Fit      -0.140203
 5504 Fit      -0.140542
 5505 Fit      -0.140460
 5506 Fit      -0.141300
 5507 Fit      -0.141518
 5508 Fit      -0.143044
 5509 Fit      -0.146544
 5510 Fit      -0.150850
 5511 Fit      -0.141386
 5512 Fit      -0.141421
 5513 Fit      -0.142905
 5514 Fit      -0.144418
 5515 Fit      -0.147500
 5516 Fit      -0.142944
 5517 Fit      -0.144943
 5518 Fit      -0.164230
 5519 Fit      -0.153117
 5520 Fit      -0.160407
 5521 Fit      -0.145371
 5522 Fit      -0.150369
 5523 Fit      -0.158895
 5524 Fit      -0.139434
 5525 Fit      -0.142517
 5526 Fit      -0.148497
 5527 Fit      -0.157749
 5528 Fit      -0.135378
 5529 Fit      -0.135310
 5530 Fit      -0.137722
 5531 Fit      -0.142808
 5532 Fit      -0.150925
 5533 Fit      -0.162642
 5534 Fit      -0.132701
 5535 Fit      -0.132246
 5536 Fit      -0.134021
 5537 Fit      -0.138179
 5538 Fit      -0.145007
 5539 Fit      -0.154972
 5540 Fit      -0.130838
 5541 Fit      -0.130272
 5542 Fit      -0.131786
 5543 Fit      -0.135512
 5544 Fit      -0.141697
 5545 Fit      -0.150740
 5546 Fit      -0.129647
 5547 Fit      -0.129375
 5548 Fit      -0.131232
 5549 Fit      -0.135370
 5550 Fit      -0.142055
 5551 Fit      -0.151709
 5552 Fit      -0.129316
 5553 Fit      -0.129590
 5554 Fit      -0.132126
 5555 Fit      -0.137109
 5556 Fit      -0.144840
 5557 Fit      -0.155766
 5558 Fit      -0.131325
 5559 Fit      -0.129983
 5560 Fit      -0.130855
 5561 Fit      -0.134060
 5562 Fit      -0.139793
 5563 Fit      -0.148332
 5564 Fit      -0.160031
 5565 Fit      -0.132105
 5566 Fit      -0.131768
 5567 Fit      -0.133972
 5568 Fit      -0.138885
 5569 Fit      -0.146705
 5570 Fit      -0.157604
 5571 Fit      -0.134027
 5572 Fit      -0.134983
 5573 Fit      -0.138801
 5574 Fit      -0.145589
 5575 Fit      -0.155275
 5576 Fit      -0.137531
 5577 Fit      -0.137335
 5578 Fit      -0.140376
 5579 Fit      -0.146696
 5580 Fit      -0.155750
 5581 Fit      -0.140618
 5582 Fit      -0.143171
 5583 Fit      -0.149737
 5584 Fit      -0.158021
 5585 Fit      -0.146114
 5586 Fit      -0.152321
 5587 Fit      -0.148576
 5588 Fit      -0.145093
 5589 Fit      -0.150405
 5590 Fit      -0.154477
 5591 Fit      -0.153596
 5592 Fit      -0.147671
 5593 Fit      -0.143318
 5594 Fit      -0.143204
 5595 Fit      -0.148399
 5596 Fit      -0.153398
 5597 Fit      -0.157617
 5598 Fit      -0.160885
 5599 Fit      -0.162149
 5600 Fit      -0.160034
 5601 Fit      -0.154522
 5602 Fit      -0.147512
 5603 Fit      -0.141651
 5604 Fit      -0.138776
 5605 Fit      -0.139479
 5606 Fit      -0.142957
 5607 Fit      -0.148550
 5608 Fit      -0.155404
 5609 Fit      -0.147944
 5610 Fit      -0.141515
 5611 Fit      -0.137048
 5612 Fit      -0.134980
 5613 Fit      -0.135432
 5614 Fit      -0.138257
 5615 Fit      -0.144420
 5616 Fit      -0.159654
 5617 Fit      -0.151434
 5618 Fit      -0.143991
 5619 Fit      -0.138076
 5620 Fit      -0.134050
 5621 Fit      -0.132062
 5622 Fit      -0.132167
 5623 Fit      -0.134366
 5624 Fit      -0.138560
 5625 Fit      -0.158757
 5626 Fit      -0.149988
 5627 Fit      -0.142428
 5628 Fit      -0.136498
 5629 Fit      -0.132359
 5630 Fit      -0.130065
 5631 Fit      -0.129649
 5632 Fit      -0.131159
 5633 Fit      -0.134666
 5634 Fit      -0.140212
 5635 Fit      -0.157278
 5636 Fit      -0.148501
 5637 Fit      -0.141142
 5638 Fit      -0.135387
 5639 Fit      -0.131275
 5640 Fit      -0.128806
 5641 Fit      -0.127993
 5642 Fit      -0.128889
 5643 Fit      -0.131611
 5644 Fit      -0.136346
 5645 Fit      -0.162350
 5646 Fit      -0.152535
 5647 Fit      -0.144197
 5648 Fit      -0.137511
 5649 Fit      -0.132491
 5650 Fit      -0.129107
 5651 Fit      -0.127341
 5652 Fit      -0.127223
 5653 Fit      -0.128856
 5654 Fit      -0.132454
 5655 Fit      -0.138373
 5656 Fit      -0.167208
 5657 Fit      -0.156736
 5658 Fit      -0.147723
 5659 Fit      -0.140341
 5660 Fit      -0.134596
 5661 Fit      -0.130440
 5662 Fit      -0.127832
 5663 Fit      -0.126771
 5664 Fit      -0.127323
 5665 Fit      -0.129655
 5666 Fit      -0.134085
 5667 Fit      -0.164176
 5668 Fit      -0.154165
 5669 Fit      -0.145701
 5670 Fit      -0.138856
 5671 Fit      -0.133600
 5672 Fit      -0.129881
 5673 Fit      -0.127668
 5674 Fit      -0.126978
 5675 Fit      -0.127912
 5676 Fit      -0.130693
 5677 Fit      -0.157360
 5678 Fit      -0.148357
 5679 Fit      -0.140980
 5680 Fit      -0.135249
 5681 Fit      -0.131131
 5682 Fit      -0.128597
 5683 Fit      -0.127668
 5684 Fit      -0.145187
 5685 Fit      -0.138555
 5686 Fit      -0.133611
 5687 Fit      -0.156530
 5688 Fit      -0.147860
 5689 Fit      -0.140809
 5690 Fit      -0.135398
 5691 Fit      -0.131584
 5692 Fit      -0.129332
 5693 Fit      -0.159688
 5694 Fit      -0.150304
 5695 Fit      -0.142580
 5696 Fit      -0.136546
 5697 Fit      -0.132150
 5698 Fit      -0.129332
 5699 Fit      -0.128069
 5700 Fit      -0.128397
 5701 Fit      -0.130432
 5702 Fit      -0.166043
 5703 Fit      -0.155549
 5704 Fit      -0.146672
 5705 Fit      -0.139544
 5706 Fit      -0.134143
 5707 Fit      -0.130402
 5708 Fit      -0.128264
 5709 Fit      -0.127706
 5710 Fit      -0.128755
 5711 Fit      -0.131483
 5712 Fit      -0.135975
 5713 Fit      -0.160765
 5714 Fit      -0.151170
 5715 Fit      -0.143198
 5716 Fit      -0.136931
 5717 Fit      -0.132342
 5718 Fit      -0.129375
 5719 Fit      -0.127976
 5720 Fit      -0.128110
 5721 Fit      -0.129751
 5722 Fit      -0.132845
 5723 Fit      -0.137215
 5724 Fit      -0.137829
 5725 Fit      -0.173122
 5726 Fit      -0.162359
 5727 Fit      -0.152512
 5728 Fit      -0.144180
 5729 Fit      -0.137610
 5730 Fit      -0.132857
 5731 Fit      -0.129886
 5732 Fit      -0.128630
 5733 Fit      -0.129002
 5734 Fit      -0.130867
 5735 Fit      -0.133970
 5736 Fit      -0.135625
 5737 Fit      -0.138884
 5738 Fit      -0.142007
 5739 Fit      -0.145164
 5740 Fit      -0.149197
 5741 Fit      -0.185436
 5742 Fit      -0.184925
 5743 Fit      -0.180292
 5744 Fit      -0.172441
 5745 Fit      -0.163025
 5746 Fit      -0.153617
 5747 Fit      -0.145293
 5748 Fit      -0.138628
 5749 Fit      -0.133851
 5750 Fit      -0.130993
 5751 Fit      -0.129977
 5752 Fit      -0.130636
 5753 Fit      -0.132676
 5754 Fit      -0.135443
 5755 Fit      -0.138598
 5756 Fit      -0.142297
 5757 Fit      -0.146826
 5758 Fit      -0.152589
 5759 Fit      -0.159286
 5760 Fit      -0.165850
 5761 Fit      -0.170914
 5762 Fit      -0.173029
 5763 Fit      -0.171120
 5764 Fit      -0.165368
 5765 Fit      -0.157315
 5766 Fit      -0.148903
 5767 Fit      -0.141612
 5768 Fit      -0.136251
 5769 Fit      -0.133115
 5770 Fit      -0.132163
 5771 Fit      -0.133106
 5772 Fit      -0.137070
 5773 Fit      -0.140679
 5774 Fit      -0.145755
 5775 Fit      -0.152021
 5776 Fit      -0.158164
 5777 Fit      -0.161788
 5778 Fit      -0.160761
 5779 Fit      -0.155099
 5780 Fit      -0.147343
 5781 Fit      -0.140495
 5782 Fit      -0.136349
 5783 Fit      -0.135361
 5784 Fit      -0.140408
 5785 Fit      -0.145293
 5786 Fit      -0.151347
 5787 Fit      -0.152204
 5788 Fit      -0.146150
 5789 Fit      -0.140446
 5790 Fit      -0.145439
 -----------------------------------------------------------------
 Leave Link  602 at Tue Feb 28 15:55:42 2023, MaxMem=   134217728 cpu:         1.3

 Test job not archived.
 1\1\NSC-N285\SP\RHF\6-31G(d)\C3H5O6P1(2-)\X_GABOA\28-Feb-2023\0\\#HF/6
 -31G* scrf=smd SCF=tight Test Pop=MK iop(6/33=2) iop(6/42=6) # iop(6/5
 0=1)\\RESP charges\\-2,1\P,0,-2.086366,-0.034102,-0.018098\O,0,-2.2723
 58,-0.800737,1.289495\O,0,-2.876914,1.262195,-0.11723\O,0,-2.139638,-0
 .916213,-1.261772\O,0,-0.500543,0.540091,0.037379\C,0,0.498598,-0.4412
 24,0.137393\H,0,0.405324,-1.2003,-0.650762\H,0,0.456288,-0.967801,1.10
 1044\C,0,1.861537,0.180179,0.027467\O,0,2.04967,1.3772,0.010964\C,0,3.
 026062,-0.775288,-0.086494\O,0,4.259995,-0.101446,0.027126\H,0,4.07940
 9,0.827218,-0.174673\H,0,2.946237,-1.536782,0.694008\H,0,2.92935,-1.28
 1536,-1.056039\\Version=ES64L-G09RevE.01\State=1-A\HF=-906.7713606\RMS
 D=9.664e-09\Dipole=7.9398965,-1.39097,-0.0611048\Quadrupole=-29.813569
 4,13.7003513,16.1132181,-2.255653,-1.798894,-0.3099244\PG=C01 [X(C3H5O
 6P1)]\\@


 YOU SHOULDN'T LET PEOPLE DRIVE YOU CRAZY
 WHEN YOU KNOW IT'S WITHIN WALKING DISTANCE.
 Job cpu time:       0 days  0 hours  0 minutes 39.4 seconds.
 File lengths (MBytes):  RWF=     35 Int=      0 D2E=      0 Chk=      8 Scr=      1
 Normal termination of Gaussian 09 at Tue Feb 28 15:55:42 2023.
